60
Lattice="5.75629072 0.0 0.0 -0.19313353 7.78012815 0.0 -0.20046651 0.31028355 10.8689902" Properties=species:S:1:pos:R:3:forces:R:3 energy=-412.98313339 stress="0.031621275115538125 -0.008158889944026826 0.011853543150890048 -0.008158889944026826 0.03358961706926438 0.0012401995037275232 0.011853543150890048 0.0012401995037275232 0.04091308300159164" free_energy=-412.98313339 pbc="T T T"
H        2.27615362       4.05850333       8.59413338      -0.74342245      -0.56061982       0.15115306
H        3.50450484       4.12501301       2.86949395      -0.52880276      -0.58983613       0.04055346
H        4.71609482       1.02018358       3.45300667       1.13062799       0.18603024       0.40926271
H        1.02666680       6.68562544       7.68861683      -0.03336860       1.61410436       0.43269012
H        1.11117894       4.53029888       9.78790239       0.09630414      -1.40865831      -2.38071470
H        3.92859340       3.44609772       1.26422757       0.78698755       1.29533590       1.97789491
H        4.33444884       7.80140388       2.08541478      -0.81884319       0.40928751       1.56007886
H        1.15242715       0.47673831       6.94425436       0.51240698      -1.39719554       1.19765083
H        0.75556178       3.06971938       8.82928746       1.19853556       1.37978670       0.34260776
H        5.06128730       3.52849873       2.60643439      -1.78338711       0.02518200      -0.43214149
H        3.99538344       7.23308948       3.65280784       0.06172662      -0.19147205       0.37541315
H        1.59592661       0.66851966       8.55974193       0.09753010      -3.39482859      -2.17436128
H        0.70283248       4.65108000       7.94723347       1.42016926      -1.79814093       2.84169769
H        4.65969731       4.90884414       2.05275792       0.19964526       1.91420018      -1.26692473
H        1.16607748       2.55049855       1.01109760       0.13114541      -1.08631838       0.64290034
H        3.29575510       0.69699362       3.07031420      -3.52465217       0.83841579      -0.18907497
H        1.03459245       0.90207615       1.83525682      -0.68102556       1.41471384      -1.77515516
H        3.54055556       5.83631651       9.50667553       0.51737846       1.60663364       0.49595338
H        4.58154193       2.66878777       5.48684114       0.81765738       0.40216880      -0.69589396
H        1.27221607       5.77375834       5.23208929      -1.44110690       1.23627011       4.61217185
H        2.24472432       1.19343109       0.79974628      -1.08520340       1.18143309      -0.07718426
H        3.72675895       6.19710480       0.09129343      -0.69221620       0.98342068       0.68714716
H        5.04023913       2.74957920       7.26837362      -3.38368937      -0.88688641      -3.43793679
H        1.16554766       6.21034119       3.76491006       1.89745397      -1.86889661       1.00973983
H        0.75838622       1.27188966       0.04861384      -0.62732795      -0.45207179       0.58748799
H        5.02467385       6.54522086      10.10387709      -2.76241524       1.33114578      -0.69332866
H        3.60401288       1.83371056       6.43844460       0.79144068      -0.09660157       0.71400198
H        1.20053773       4.51241126       4.25917445       1.23181748       1.35426304      -0.01592540
H        2.76345195       5.43313430       4.49813431      -2.56163527       0.35218686      -0.47491696
H        3.47370139       3.49074743       6.57517008       1.97037771      -1.02801988      -0.43363482
H        3.54568894       7.52297369       9.54133620      -0.49591640       1.64778549      -0.34958613
H        2.35554694       7.69231540       7.36909101       2.75185991      -0.48786941      -0.63473082
S        1.05946005       5.74794015       0.82925135      -2.34360371      -0.68260749       0.54622521
S        3.96782649       2.41732853       9.85690853       2.62750816      -1.77385329       0.72376444
S        4.21273439       6.03882085       6.29817669       1.93027193      -0.37420761       3.18471946
S        1.31381475       2.02555250       4.72873831       1.58855634      -2.12252258      -3.97141028
N        1.26760467       4.02327903       8.81316701      -2.73904504       2.48106133      -1.25183889
N        4.21951454       4.02907257       2.16605867       1.29941147      -3.15873791      -0.14935915
N        4.15080368       0.27384525       3.05316521       3.25404158      -1.10196933      -1.76747896
N        1.44505007       7.65834358       7.70394645      -3.97813896       3.93908399       1.06706151
N        1.22626323       1.48817382       0.95538793       2.28268297      -0.87483985       0.61935096
N        3.83638582       6.72421980      10.02975590       3.81606183      -5.30595261      -0.77529227
N        4.19564843       2.67065237       6.41444989       0.05916929       1.11542066       3.86020230
N        1.64229120       5.46450187       4.42979271       0.59593510      -0.61830374      -5.06025263
O        2.24693202       6.07234874       1.57754589       0.45206245       0.50426218      -0.16887299
O        5.35153669       1.88025123       9.37536531      -2.20981454       0.90982769       0.68347474
O       -0.25898519       5.69860385       7.02391493      -0.12860647       0.30163043      -1.46848869
O        2.36940654       2.81536014       3.96759249      -1.60029266      -1.04434265       1.37270543
O       -0.17890036       6.36742255       1.55044004       2.58993999      -1.32321101      -1.31035670
O        2.94650136       1.76006437       9.01540576       0.77671962       0.28127928       1.60791675
O        3.27359125       5.07713969       6.92908853      -0.83853812       1.08246838      -1.61771435
O       -0.00873882       2.30692705       4.12846496      -0.40509882       0.93428515      -0.36755576
O        0.90142357       6.56113678      10.28843146      -0.55845056      -0.12755285       1.45121293
O        4.11000393       1.82000771       0.48122302      -0.80663136      -0.69364827      -1.83305142
O        4.41060401       5.89928875       4.83228772      -0.82193421      -0.69927765       0.57596812
O        1.29387216       2.30881796       6.11577623       0.23461064       0.77670480       2.05999110
O        0.89550841       4.25216848       0.74501635       0.08018608       1.74382436       0.24442009
O        3.90756171       3.84295024       9.76209126      -0.08781840       1.22219382      -0.76962715
O        3.83794432       7.41029242       6.62142383       0.34815981      -0.41286638      -0.60917767
O        1.56189494       0.56920308       4.49651722       0.13260370       1.09690255       0.07656893
60
Lattice="6.28233916 0.0 0.0 0.20064612 7.84249675 0.0 0.16811571 -0.04264803 10.46637372" Properties=species:S:1:pos:R:3:forces:R:3 energy=-412.12709005 stress="0.02770007966901922 -0.00035313289599588196 -0.007912131418863357 -0.00035313289599588196 0.02057896062266645 -0.019200243999715715 -0.007912131418863357 -0.019200243999715715 0.018096257031589312" free_energy=-412.12709005 pbc="T T T"
H        1.30057716       4.54985738       8.39948931       1.63748878      -0.21232700      -0.31905881
H        4.18312822       5.37926012       2.59315692      -0.54538797      -1.70301897      -0.41513838
H        4.09765672       7.51397589       3.07578213       2.60637132       0.85845225       0.00946877
H        1.50369763       0.45943019       7.08651360       1.16699071      -0.13295737       1.74328405
H        1.64955815       3.09783977       8.95152678      -0.03368238      -0.54641677      -0.30838410
H        3.45450439       3.80076159       2.70388100      -0.51775347      -0.45204708       0.20706744
H        4.89087302       0.71736111       2.20358572       0.32261131      -1.05644150       0.34587410
H        1.77513579       7.25711265       8.51131613       0.26559791      -0.18665211      -0.96847353
H        2.97653925       3.81225321       8.33775194       1.32441318       1.18937219       1.21662583
H        5.06626421       4.25509693       3.41031078      -2.32303179      -0.18376645      -2.14847757
H        5.25179808       0.39002388       3.65888108       3.06710951       3.10776528       6.80246312
H        2.62734140       7.03962546       7.02377690       0.79047548      -2.12915559      -0.40609764
H        1.90207853       3.39640781       7.30946547      -1.03752668      -0.54693760      -0.34177069
H        4.79912538       4.11846215       1.66838288      -0.88706127      -0.19785653       1.16984970
H        1.83718465       2.03199089       1.68899996       1.32240565       3.25489933       0.20706577
H        5.70889083       6.99041663       2.57057687       0.54785200       0.37371011       0.14203424
H        1.91021716       0.61858850       1.89775106      -1.36363919      -1.24255020       0.46399882
H        4.10745777       5.75975266      10.01604721       0.54374934       0.13543424       0.69136476
H        4.78035190       2.98915231       6.58169214       2.07616241       2.95536661       2.78852254
H        2.79288860       5.87314702       5.09644766      -2.45061369      -0.34524984       0.19380540
H        2.43579946       0.91509409       0.51125399       0.11460662       1.17146341      -1.38653518
H        5.78531638       6.03981424      10.19631448       3.31195108      -1.08840636       2.20606735
H        3.86188708       2.70463007       5.35953671      -1.70089942       0.49549506      -0.39631404
H        1.73851281       6.39869093       3.79697934      -0.64138455       0.25078931       1.41597881
H        0.71510533       1.39599658       0.84407222       0.83025815      -0.91622511      -0.42712494
H        5.09076162       5.67373725       8.70235895       0.65583285       0.46447400       1.57210494
H        4.34047829       1.44967501       6.31845059       0.71528370       0.67040007      -0.56268290
H        0.97592066       5.57162377       5.14293511       0.88481098      -0.47870144      -0.93314837
H        2.14810721       4.98551752       3.93392911      -0.66289391      -2.94659162      -0.30376392
H        5.24402197       2.14695301       5.04261042       1.02959591       0.65250508       1.87718548
H        4.88389907       7.15530821       9.49880645      -0.20515777      -0.72844830       0.24596038
H        3.03093437       0.25924851       8.20767626      -2.06588239       0.17135995      -1.20565305
S        1.57271658       5.63319839       0.81883622      -1.89354082      -2.81964450      -0.90920642
S        4.95742926       2.13567616       9.52849746      -2.54560129       2.49506897       1.89747379
S        5.11013303       6.01451054       6.04450969      -1.43346767       0.67399650       2.95316494
S        1.66928723       1.78994809       4.36225468      -0.97619977       1.47132595       0.02695940
N        1.97882065       3.75751509       8.24862093      -2.11757497      -0.00971877      -0.20638010
N        4.30090485       4.33198485       2.57836134       4.64325230       2.03482017       0.41891564
N        5.16029057       7.79419200       2.93595462      -6.40273836      -2.79741756      -7.76616906
N        2.31564921       7.66554095       7.71656826      -0.77087070       2.58950203       1.09941059
N        1.71241351       1.25305321       1.12947495      -1.36577872      -1.59428366       0.43663581
N        4.99979005       6.12706575       9.67741543      -4.53505098       1.44280655      -4.99701003
N        4.63849708       2.36211586       5.89196868      -1.38318024      -4.52211322      -3.47487703
N        1.82574589       5.67473955       4.54801596       2.51294996       3.21330729      -0.15502605
O        2.70970703       6.41007036       1.23620391       1.64600868       0.62437152       0.32863642
O        6.27539635       1.87914850       9.05241247       0.58663907      -1.35758178      -1.78674351
O        5.95984751       5.26458066       6.99928580      -0.29364020       0.61960912      -1.13345991
O        2.61429871       2.97032168       4.04773973      -1.53647876      -2.43876185       0.42818971
O        0.45343053       5.97841369       1.74660082       0.24340901      -0.64133247      -0.40626180
O        3.78942602       1.13616745       9.22534324       2.59980094       1.39431800      -0.41765962
O        3.63203976       5.69221991       6.51560787       3.10625980       0.78488239      -1.98800699
O        0.33104941       2.00405361       3.69256826       1.53098020      -0.00082147       1.01821770
O        1.30776152       5.94334418       9.90210734       0.67634076       0.51758255       0.74265956
O        4.89429434       2.09241646       0.53634754      -0.38337269       0.30410592       0.43998940
O        5.33498742       5.61004398       4.67271234      -0.37952698      -1.18624230      -0.62492414
O        1.44901214       1.81315788       5.86700345       1.06011288      -0.77850872      -2.93239834
O        1.86909961       4.16002875       0.79872184      -0.34774989       2.34003069       0.75175221
O        4.55754648       3.56726684       9.06814364       0.30893499      -3.70915364       0.62018418
O        5.41512002       7.46177980       6.07389613      -0.90201402      -0.90059018       0.56599955
O        2.24560673       0.53806682       3.71924526      -0.42655493       1.59270543       1.89383573
60
Lattice="6.32013645 0.0 0.0 0.67231836 9.70073554 0.0 -0.12857852 0.41855525 10.35037888" Properties=species:S:1:pos:R:3:forces:R:3 energy=-412.42909903 stress="0.054919823275204296 -0.005207098806518798 -0.002505149580822045 -0.005207098806518798 0.03970044767488846 0.005488492601776455 -0.002505149580822045 0.005488492601776455 0.03315686603482861" free_energy=-412.42909903 pbc="T T T"
H        0.68775145       4.28259024       8.66784168      -0.10389033       0.09539504       1.43519529
H        5.59765905       5.68240325       2.48951939      -0.22050527      -0.71934921       0.81394615
H        5.39625895       1.75695611       3.99269271      -1.28015068      -2.24531400      -1.79555322
H        2.83883871       8.71114326       6.59014492      -1.52917608      -0.37929529       0.97366696
H        1.74292962       5.55361280       8.72932210       0.23299719      -1.41858596      -0.83204713
H        6.31669233       5.61883230       0.86473793      -1.31839980      -0.26530590       2.08762162
H        3.85907546       1.05067135       3.55756009       0.81971136      -0.13124959       0.31024717
H        1.01762696       8.38256403       6.71779180       2.09615034       0.07805782       1.11322749
H        1.63392002       4.15440478       7.55271991       1.20970710       1.45615035      -0.65039147
H        4.61537831       5.41919763       1.03672707       2.03554797      -0.28228562       2.29612629
H        4.89296945       1.42750075       2.38349322       0.70082091       0.05038434      -2.00322108
H        1.99989030       9.06074350       8.04287142      -0.06834424       0.74628655       1.51200056
H        2.38196098       3.85293373       9.12612861      -1.41799526       1.30032536      -0.16683040
H        5.64254360       4.20287472       1.40459827       0.20311014      -1.70174535       1.43532041
H        1.35293472       0.29009592       1.51485961      -0.57428294       1.53733576       0.36160407
H        5.94108411       9.72302152       3.56259731      -0.92654185       1.58797098      -1.18451048
H        2.18560256       1.62758381       0.83745847      -2.21656173       0.09783906       1.33156430
H        4.30079481       8.31234100       9.54617939       2.01383736      -0.25514924      -1.14053188
H        5.60147774       3.14024965       6.23144726       0.10871098      -0.78470033       0.14010488
H        2.93457358       6.70170143       4.09690146      -1.60346921      -1.33531390      -0.29752421
H        1.67463860       1.77903377       2.41517987      -0.09954417       0.37894201       1.04308654
H        5.18644831       9.48578567       8.72731868       0.42713267      -1.38847229       0.27568089
H        3.81640864       3.21121203       6.26145611       2.42301461       0.88489494      -0.89049578
H        1.17936609       6.84617397       4.00362529       1.47510752      -0.70425169      -0.35208402
H        0.44329381       1.79347578       1.26235457       0.48171998      -0.26902345      -0.12691946
H        6.24447959       8.22543808       9.34491006      -2.56517604      -0.14478997      -0.02519944
H        5.09745256       4.70236123       5.95052204      -1.74077669      -2.12721352       0.92698196
H        1.84390502       5.34313053       4.51111193       0.56918943       0.59580360      -0.64925700
H        2.04293513       5.96101546       2.71121892       0.52048601       0.48971669       3.94629377
H        4.71332822       3.87967862       7.49911292       0.95594101       0.12490580      -0.72088946
H        5.15142202       7.95667093       8.09995179      -0.27180026      -1.37739268      -2.31617279
H        1.71199031       9.74442500       6.44520556      -0.59833099       3.89592694      -0.66364648
S        2.10557977       7.27545107       0.53240972      -0.49967792       1.88857615      -0.06365665
S        4.56781268       2.92233173      10.02138608      -1.14093112      -0.41758928      -3.07995831
S        5.37734003       7.34891813       5.24440988      -2.88699452      -0.24533033      -0.91261958
S        1.72812400       2.83596754       4.95511927       0.40222233       0.33876553       1.00021697
N        1.67612498       4.52366400       8.52163968      -0.25712671      -1.20539050       0.44988450
N        5.54475435       5.16272297       1.62824191      -0.88650373       3.16453462      -5.87427185
N        4.85964860       1.01676516       3.28052112       0.81213538       0.15693223       5.51580038
N        1.88968012       9.03120741       7.06057492       0.30336172      -4.49889454      -3.37177718
N        1.34817549       1.37807451       1.55379267       2.95746127      -2.44331993      -3.11113954
N        5.24701640       8.43244538       8.93814213      -0.16397727       3.42276061       3.04683943
N        4.81593507       3.73759388       6.46837251      -1.52500695       1.97321815       0.20715864
N        2.02245908       6.18001606       3.86269443      -0.56592110       1.20073919      -2.53919539
O        3.03484353       6.32328495       1.22255901      -1.36851129       1.30400760      -1.65834096
O        5.34765490       2.33274335       0.99558473      -0.92696062       0.16850923      -1.10960789
O        6.32402775       7.12676706       6.34963865      -0.29222409       0.26209634       0.23522237
O        2.93681801       2.09176195       5.55138711      -2.46655274       1.52166422      -1.13089621
O        1.66789907       8.36108539       1.44527091       1.08549953      -1.24963095      -0.71033826
O        4.99266074       4.20618869       9.40155716      -0.01322092      -0.80193799       0.72521217
O        4.81567661       6.05011110       4.71894060       0.96027651       1.23938550       1.21253585
O        1.59902177       4.21042923       5.60935740       0.64956058      -2.03602242      -0.65316714
O        2.54631860       8.32979587       9.60165452       0.15086242      -1.55992832       2.31164281
O        4.90124837       1.82425629       8.99582252      -1.11614214       1.96100915       3.21442335
O        6.10360694       7.94924317       4.10118548      -0.17924375       0.76219957       0.55940292
O        0.47229488       2.12284524       5.28369878       0.41434951      -0.46325888      -0.15511900
O        0.83807242       6.59623424       0.09954777       1.28052014      -0.43187058      -0.43360646
O        3.04311398       3.07908740      10.29518031       2.65833580      -0.90904035      -0.85181185
O        4.20504559       8.21859634       5.70543335       2.33255691      -1.24780885      -0.73341832
O        1.83661001       2.96648039       3.48751307       0.54361375       0.35512760       1.72319118
60
Lattice="6.71258078 0.0 0.0 0.37349916 9.40483214 0.0 -0.2624063 0.33479531 10.36931506" Properties=species:S:1:pos:R:3:forces:R:3 energy=-411.29992641 stress="0.015150824331639131 -0.00938738046401532 0.0015654859379658226 -0.00938738046401532 0.021147774277895645 -0.012453444695777202 0.0015654859379658226 -0.012453444695777202 0.0382124130855374" free_energy=-411.29992641 pbc="T T T"
H        1.83834152       3.60480393       9.20933639      -0.66781365       0.24452591      -0.29634897
H        5.28180337       5.32037710       2.86357646      -1.45128174       0.91670292       0.34989113
H        5.76806658       1.02294779       3.88140510       2.58636868       1.34301871       1.74692969
H        2.61859154       8.85897963       6.61603778      -0.12474638      -0.93646977       1.05637417
H        0.43802895       4.50916070       9.00140829       0.02128703      -0.31655146      -0.60290752
H        5.83796957       5.96587487       1.50918983       2.17519225       0.67155965       0.02282572
H        4.15910967       1.01598175       3.76060901      -0.25919113       0.13298137       0.03280945
H        1.12147266       8.31466923       6.69006546      -2.32112040      -1.25426809      -0.10491056
H        1.45410494       3.96262221       7.67932777      -0.56777638       0.22465284      -1.20376876
H        4.42750705       5.62260696       1.16314017       0.04395975      -2.24137084       2.82010707
H        5.15651880       0.95811977       2.29147232      -0.39604004      -0.84590851       3.20963646
H        1.77546290       9.19193067       8.05579115      -0.45754258      -0.74585593      -0.10688975
H        2.05261915       5.11018798       8.89417423      -1.25861912      -0.16315623      -0.85119685
H        5.76216867       4.35244441       1.76286019      -1.03942319       0.12779540      -1.55308348
H        1.77477942       0.81929792       1.37191482       0.79341275       2.64065063      -1.41353304
H        5.45459388       8.91701774       3.55249903       0.30043717       2.47675611      -0.21896289
H        2.49581278       2.26606807       0.50645881       1.11021624       0.04189641       0.02473670
H        3.89214433       7.54586603       9.32273501      -0.80407862      -1.50198649      -1.22722179
H        5.64759676       2.79406929       5.70631029       0.39945630       0.30460195      -0.50012443
H        3.14855337       6.84542243       4.35175153      -1.76126944      -1.14166460       1.80130353
H        1.92784023       2.28947992       2.15475891       0.45123127       0.38766584      -0.74085572
H        4.86957748       8.66068368       9.10322885       1.65875863      -1.08792665       1.02052859
H        4.05045369       2.86834313       5.76033878      -4.41867545      -2.56377373      -1.18822017
H        1.50408445       7.02925303       4.31060380      -1.54330374       1.00381338      -0.62438736
H        0.82730313       2.15948183       1.01205324      -0.30213026       0.41910152      -0.72978098
H        5.44500544       6.92742050       9.59632565      -0.01399416       2.28903819      -0.72563514
H        4.74306478       4.22162279       5.97970828       0.50964329       3.12594472      -1.16026838
H        1.93435178       5.52993842       4.76145478       0.73781181      -0.21075618      -0.08057362
H        2.52924392       6.19122332       3.22559269      -1.92541959      -0.74684764      -1.25306871
H        5.07835233       3.21530665       7.20295677      -1.17648575      -0.32282732      -1.94397182
H        5.21631987       7.53294076       7.98574549      -0.89655584      -0.84779359       0.73905630
H        1.30047081       0.47440957       6.59825233      -2.33146017       4.28651733      -2.22203954
S        2.01026986       6.82533253       0.19167306      -2.01037315       0.36457065       3.38633796
S        4.92121904       2.85407480      10.02742080      -0.56512328       0.09412513       1.37680292
S        5.39743390       7.20796805       5.45541227      -1.56697796       0.25229391       0.48133004
S        1.34683014       2.70217741       5.02163624      -1.76745830      -0.90532929      -1.18802269
N        1.36961406       4.31897226       8.61989558       2.47307695      -0.01357755       2.91511504
N        5.22958150       5.25443328       1.85094317       0.31145096       0.23089320      -1.11094473
N        5.03427858       0.65756075       3.38120323      -1.90932080      -2.82221549      -4.56565866
N        1.66401944       9.04574818       7.04631178       5.29112709      -1.75353257       1.73569407
N        1.83624789       1.91703708       1.18668795      -1.69780255      -3.65341657       3.15674441
N        4.85622251       7.60578208       9.00048459       0.83591654       1.69189291      -0.00557034
N        4.82833713       3.26844924       6.08474881       4.90318508      -0.76702262       5.44948201
N        2.19458686       6.33761227       4.18786118       3.75520965       0.90928599       0.22517670
O        2.44743916       6.54226372       9.44352384       0.28811633       0.04974895      -0.32379737
O        6.11379193       2.70684192       0.84595786      -0.35482980      -0.09289786      -1.12268876
O        6.23699883       7.22468102       6.73201504      -1.11029495       0.73720658      -2.43956577
O        2.68868494       2.09611966       4.85137831      -0.67738178       0.30828830      -0.57658176
O        2.65635633       6.31582981       1.50952787      -0.75427387       0.92440354      -2.71201346
O        5.55412163       3.44181679       8.79130150      -1.05694779      -0.83502642       1.35252363
O        4.87964648       5.82651575       5.29546590       0.28053068       1.64813682      -0.25896810
O        1.42079243       3.75564003       6.04485930       0.20264371       0.20167887      -0.88807432
O        2.15612156       8.30113513       0.10659988      -0.15533875      -1.39487269      -0.09079917
O        4.61160446       1.42129125       9.90905984       0.33678639       0.95983679      -0.50717718
O        6.16093654       7.58783054       4.22543668       0.17279974      -0.22168108       1.05596699
O        0.41159422       1.61437747       5.52983108       0.79651985       1.19547996      -0.62834175
O        0.53435900       6.40816816       0.18232947       2.65778913       0.51966484       0.06892463
O        3.96077765       3.27475766       0.07729028       0.60093397      -0.58456760      -1.39237569
O        4.22695184       8.21849687       5.49723016       1.90855679      -1.98812178       0.50743219
O        0.72848195       3.21885040       3.73459188       1.74063258      -0.76531076       2.02259981
60
Lattice="6.12589659 0.0 0.0 -0.32025651 7.97116664 0.0 0.30022041 1.08411911 10.93901073" Properties=species:S:1:pos:R:3:forces:R:3 energy=-411.45951798 stress="0.038142252256487305 0.0030989965372986176 0.00442115774755412 0.0030989965372986176 0.05761404437664854 0.001430300392759295 0.00442115774755412 0.001430300392759295 0.049666701352979827" free_energy=-411.45951798 pbc="T T T"
H        1.48799635       5.42446188       9.53160231       0.77464835      -0.61500310      -0.09621586
H        5.03982758       4.94758631       2.13326833      -0.29147842      -1.44779410       1.84866888
H        5.08650910       8.18048846       2.91941434      -1.41108460       0.53994329       0.01390730
H        2.70975579       8.21719834       7.27816698       0.69395483      -1.40040174       0.03509106
H        0.86940338       4.13336821       8.82349608       0.24684333      -0.45363047      -0.46374121
H        5.30294498       3.43765021       3.22970387      -0.57003974       1.75191140      -1.33063836
H        4.30979416       0.97659632       1.59575707       1.59909170      -0.80150044       1.21212777
H        1.86355415       1.32536998       7.24451060      -0.21493111      -1.91930022       0.70675724
H        2.56777140       4.48243678       8.53516203      -0.98006441       0.50893118       0.14408284
H        4.66601868       3.41981766       1.58525048      -0.82500165       1.06753468       2.52632401
H        3.64042056       7.35911645       2.22900710       1.59420463       2.95155640       1.28495425
H        1.00291058       7.65391291       7.49981945       0.90137156       0.37027173      -0.20530731
H        1.27955965       5.53463439       8.02481211      -0.14266058      -0.08973837      -1.58429158
H        3.76300270       4.11839315       3.00423084      -0.52929039       0.01917256      -0.09949640
H        2.21007862       1.38484717       0.86149752      -1.39676655       0.48402061      -0.19237955
H        3.75126484       0.94364876       3.03180393      -0.02352804      -0.02722153       2.26290811
H        1.15668337       1.92044896       1.97912717      -0.54183548       1.69002013       3.20849466
H        4.35522272       8.39264666       9.39329460      -0.24252239      -2.14184992       1.16080688
H        4.70967510       4.21126022       6.49529895      -0.21036094      -1.11857466       0.01014338
H        2.99548100       6.47359533       4.39147559      -1.39298816       0.93373844       1.42915214
H        0.88217690       0.24286173       1.30925880       0.75436609       3.02396492       0.22669679
H        5.36323178       7.65122593      10.67465816      -3.19488123      -0.56291926      -1.64427369
H        4.04982651       2.92152128       5.56756681       0.91004913       0.73869428       2.53432743
H        1.56925259       7.55617733       4.07962573       0.67751060       1.58795495       1.32301153
H        0.50289902       1.71610349       0.44251427       1.46079442      -0.11967141       0.53559009
H        3.65791314       7.18206336      10.41764249      -3.47124043      -0.74548434       2.24886985