60
Lattice="5.75629072 0.0 0.0 -0.19313353 7.78012815 0.0 -0.20046651 0.31028355 10.8689902" Properties=species:S:1:pos:R:3:forces:R:3 energy=-408.68022923 stress="0.022119970632391343 -0.008201206352292817 0.011874557319716946 -0.008201206352292817 0.023941381182336127 0.001233645232579342 0.011874557319716946 0.001233645232579342 0.03129728672795273" free_energy=-408.68022923 pbc="T T T"
H        2.27615362       4.05850333       8.59413338      -0.74385253      -0.56265380       0.15198822
H        3.50450484       4.12501301       2.86949395      -0.52742336      -0.58978193       0.03973095
H        4.71609482       1.02018358       3.45300667       1.13195631       0.18539697       0.40788128
H        1.02666680       6.68562544       7.68861683      -0.03536549       1.61574011       0.43203965
H        1.11117894       4.53029888       9.78790239       0.09668013      -1.40694699      -2.38229425
H        3.92859340       3.44609772       1.26422757       0.78875073       1.29448105       1.98162947
H        4.33444884       7.80140388       2.08541478      -0.82003726       0.41000972       1.56470744
H        1.15242715       0.47673831       6.94425436       0.51430331      -1.39742590       1.19882223
H        0.75556178       3.06971938       8.82928746       1.19729464       1.38009612       0.34252185
H        5.06128730       3.52849873       2.60643439      -1.78665686       0.02636891      -0.43295194
H        3.99538344       7.23308948       3.65280784       0.06158613      -0.19111708       0.37445469
H        1.59592661       0.66851966       8.55974193       0.09837499      -3.40054642      -2.18133046
H        0.70283248       4.65108000       7.94723347       1.42715364      -1.80437015       2.85187450
H        4.65969731       4.90884414       2.05275792       0.20136154       1.91388451      -1.26667982
H        1.16607748       2.55049855       1.01109760       0.13101631      -1.08959631       0.64330157
H        3.29575510       0.69699362       3.07031420      -3.52437355       0.83859938      -0.18921634
H        1.03459245       0.90207615       1.83525682      -0.68037360       1.41553621      -1.77602560
H        3.54055556       5.83631651       9.50667553       0.51733333       1.60998268       0.49648045
H        4.58154193       2.66878777       5.48684114       0.82102826       0.40006079      -0.69551310
H        1.27221607       5.77375834       5.23208929      -1.44232465       1.23684717       4.61055078
H        2.24472432       1.19343109       0.79974628      -1.08592520       1.18315419      -0.07635730
H        3.72675895       6.19710480       0.09129343      -0.69288779       0.98351296       0.68692977
H        5.04023913       2.74957920       7.26837362      -3.39471472      -0.88888609      -3.44779176
H        1.16554766       6.21034119       3.76491006       1.89929501      -1.87218538       1.01004197
H        0.75838622       1.27188966       0.04861384      -0.62888601      -0.45056409       0.58917938
H        5.02467385       6.54522086      10.10387709      -2.76872467       1.33242160      -0.68944796
H        3.60401288       1.83371056       6.43844460       0.79016016      -0.09523433       0.71321514
H        1.20053773       4.51241126       4.25917445       1.23363811       1.35287963      -0.01561565
H        2.76345195       5.43313430       4.49813431      -2.56268526       0.35410928      -0.47341040
H        3.47370139       3.49074743       6.57517008       1.97293960      -1.02672827      -0.43476423
H        3.54568894       7.52297369       9.54133620      -0.49609818       1.65018231      -0.34955179
H        2.35554694       7.69231540       7.36909101       2.75272643      -0.48868171      -0.63437121
S        1.05946005       5.74794015       0.82925135      -2.34985916      -0.67783575       0.54763277
S        3.96782649       2.41732853       9.85690853       2.62926077      -1.78148530       0.72393875
S        4.21273439       6.03882085       6.29817669       1.93050970      -0.37481467       3.18063589
S        1.31381475       2.02555250       4.72873831       1.58417237      -2.12079384      -3.97464146
N        1.26760467       4.02327903       8.81316701      -2.74543446       2.48815131      -1.26139243
N        4.21951454       4.02907257       2.16605867       1.30132921      -3.16023045      -0.14897909
N        4.15080368       0.27384525       3.05316521       3.25544565      -1.10264370      -1.76904697
N        1.44505007       7.65834358       7.70394645      -3.97857281       3.94463831       1.07068727
N        1.22626323       1.48817382       0.95538793       2.28302412      -0.87612087       0.61965468
N        3.83638582       6.72421980      10.02975590       3.82756973      -5.30646874      -0.77203420
N        4.19564843       2.67065237       6.41444989       0.06976495       1.11784366       3.86924144
N        1.64229120       5.46450187       4.42979271       0.60012092      -0.61775217      -5.06315620
O        2.24693202       6.07234874       1.57754589       0.44525165       0.50242731      -0.17122371
O        5.35153669       1.88025123       9.37536531      -2.21670539       0.91465249       0.68710421
O       -0.25898519       5.69860385       7.02391493      -0.13379657       0.30705157      -1.47261793
O        2.36940654       2.81536014       3.96759249      -1.60725395      -1.04928668       1.37748460
O       -0.17890036       6.36742255       1.55044004       2.59550474      -1.32726477      -1.31366629
O        2.94650136       1.76006437       9.01540576       0.78219544       0.28299694       1.61111193
O        3.27359125       5.07713969       6.92908853      -0.83044399       1.08773068      -1.62408745
O       -0.00873882       2.30692705       4.12846496      -0.39713312       0.92984099      -0.36362086
O        0.90142357       6.56113678      10.28843146      -0.56057779      -0.13160679       1.45926214
O        4.11000393       1.82000771       0.48122302      -0.80644154      -0.69106994      -1.83865634
O        4.41060401       5.89928875       4.83228772      -0.82461672      -0.69562835       0.58374620
O        1.29387216       2.30881796       6.11577623       0.23296196       0.77069528       2.04896152
O        0.89550841       4.25216848       0.74501635       0.07936591       1.75392154       0.24731435
O        3.90756171       3.84295024       9.76209126      -0.09032282       1.21044634      -0.77014321
O        3.83794432       7.41029242       6.62142383       0.34803565      -0.42458378      -0.60852422
O        1.56189494       0.56920308       4.49651722       0.13137605       1.10864424       0.07498707
60
Lattice="6.28233916 0.0 0.0 0.20064612 7.84249675 0.0 0.16811571 -0.04264803 10.46637372" Properties=species:S:1:pos:R:3:forces:R:3 energy=-408.09517685 stress="0.01909718370794991 -0.0003896775810448775 -0.007893283172291814 -0.0003896775810448775 0.011859182316936228 -0.019208543715132458 -0.007893283172291814 -0.019208543715132458 0.009473346903802232" free_energy=-408.09517685 pbc="T T T"
H        1.30057716       4.54985738       8.39948931       1.63961581      -0.21506930      -0.31926595
H        4.18312822       5.37926012       2.59315692      -0.54361104      -1.70664695      -0.41582896
H        4.09765672       7.51397589       3.07578213       2.61154509       0.86089009       0.00707106
H        1.50369763       0.45943019       7.08651360       1.16846622      -0.13307388       1.74664300
H        1.64955815       3.09783977       8.95152678      -0.03459310      -0.54528918      -0.31146717
H        3.45450439       3.80076159       2.70388100      -0.51579640      -0.45122975       0.20665513
H        4.89087302       0.71736111       2.20358572       0.32369158      -1.05731972       0.34721431
H        1.77513579       7.25711265       8.51131613       0.26689526      -0.18403282      -0.97138536
H        2.97653925       3.81225321       8.33775194       1.32257352       1.18671039       1.21711951
H        5.06626421       4.25509693       3.41031078      -2.32699745      -0.18454990      -2.15381849
H        5.25179808       0.39002388       3.65888108       3.06693811       3.10894136       6.80062873
H        2.62734140       7.03962546       7.02377690       0.79073511      -2.12827273      -0.40429125
H        1.90207853       3.39640781       7.30946547      -1.03907894      -0.54702918      -0.33871947
H        4.79912538       4.11846215       1.66838288      -0.88756189      -0.19947580       1.17342061
H        1.83718465       2.03199089       1.68899996       1.32069023       3.25329833       0.20929255
H        5.70889083       6.99041663       2.57057687       0.54603462       0.37350951       0.14085365
H        1.91021716       0.61858850       1.89775106      -1.36402548      -1.23950955       0.46389978
H        4.10745777       5.75975266      10.01604721       0.54402213       0.13656122       0.69224402
H        4.78035190       2.98915231       6.58169214       2.07679466       2.95411201       2.78870013
H        2.79288860       5.87314702       5.09644766      -2.45152531      -0.34664214       0.19574389
H        2.43579946       0.91509409       0.51125399       0.11426506       1.17351275      -1.38642802
H        5.78531638       6.03981424      10.19631448       3.31492795      -1.08861338       2.20571220
H        3.86188708       2.70463007       5.35953671      -1.70226882       0.49235139      -0.39679000
H        1.73851281       6.39869093       3.79697934      -0.64158035       0.24782373       1.41663397
H        0.71510533       1.39599658       0.84407222       0.83006942      -0.91307247      -0.42843330
H        5.09076162       5.67373725       8.70235895       0.65724090       0.46629305       1.57181488
H        4.34047829       1.44967501       6.31845059       0.71739614       0.67333181      -0.56326263
H        0.97592066       5.57162377       5.14293511       0.88203616      -0.47814797      -0.93148977
H        2.14810721       4.98551752       3.93392911      -0.66324262      -2.94711671      -0.30324739
H        5.24402197       2.14695301       5.04261042       1.03195293       0.65208652       1.87932218
H        4.88389907       7.15530821       9.49880645      -0.20448367      -0.72740737       0.24606694
H        3.03093437       0.25924851       8.20767626      -2.06796762       0.17262253      -1.20361879
S        1.57271658       5.63319839       0.81883622      -1.89761148      -2.81946489      -0.91406601
S        4.95742926       2.13567616       9.52849746      -2.54281591       2.48733438       1.89913838
S        5.11013303       6.01451054       6.04450969      -1.42887694       0.67100892       2.95795971
S        1.66928723       1.78994809       4.36225468      -0.97949758       1.47980085       0.02576414
N        1.97882065       3.75751509       8.24862093      -2.12047585      -0.01099708      -0.20531517
N        4.30090485       4.33198485       2.57836134       4.64691248       2.03300810       0.42031265
N        5.16029057       7.79419200       2.93595462      -6.40462980      -2.79644881      -7.76825206
N        2.31564921       7.66554095       7.71656826      -0.77176148       2.59359248       1.10106716
N        1.71241351       1.25305321       1.12947495      -1.36689859      -1.59221247       0.43884664
N        4.99979005       6.12706575       9.67741543      -4.53062897       1.44300234      -4.99912481
N        4.63849708       2.36211586       5.89196868      -1.38100043      -4.52496592      -3.47736002
N        1.82574589       5.67473955       4.54801596       2.51260433       3.21187514      -0.15001900
O        2.70970703       6.41007036       1.23620391       1.63808259       0.61914376       0.32448569
O        6.27539635       1.87914850       9.05241247       0.57894826      -1.35486536      -1.78172908
O        5.95984751       5.26458066       6.99928580      -0.29836877       0.62536509      -1.13931702
O        2.61429871       2.97032168       4.04773973      -1.54147124      -2.44500089       0.43077202
O        0.45343053       5.97841369       1.74660082       0.24625664      -0.64455810      -0.41301386
O        3.78942602       1.13616745       9.22534324       2.60534774       1.39702172      -0.41753494
O        3.63203976       5.69221991       6.51560787       3.11159783       0.79013444      -1.99094492
O        0.33104941       2.00405361       3.69256826       1.53786183      -0.00353810       1.02185358
O        1.30776152       5.94334418       9.90210734       0.67513203       0.51396338       0.74962866
O        4.89429434       2.09241646       0.53634754      -0.38174353       0.30377257       0.42904810
O        5.33498742       5.61004398       4.67271234      -0.37763383      -1.18293299      -0.61762007
O        1.44901214       1.81315788       5.86700345       1.06091475      -0.77812610      -2.93863568
O        1.86909961       4.16002875       0.79872184      -0.35034962       2.34949425       0.75168327
O        4.55754648       3.56726684       9.06814364       0.31049260      -3.71961994       0.62199041
O        5.41512002       7.46177980       6.07389613      -0.90335632      -0.90980063       0.56686031
O        2.24560673       0.53806682       3.71924526      -0.43018891       1.60446799       1.89253195
60
Lattice="6.32013645 0.0 0.0 0.67231836 9.70073554 0.0 -0.12857852 0.41855525 10.35037888" Properties=species:S:1:pos:R:3:forces:R:3 energy=-409.24468326 stress="0.04941375867815934 -0.0051810148657987455 -0.002520550454658089 -0.0051810148657987455 0.034475272328227946 0.005467821559913752 -0.002520550454658089 0.005467821559913752 0.02773727496273799" free_energy=-409.24468326 pbc="T T T"
H        0.68775145       4.28259024       8.66784168      -0.10096466       0.09581813       1.43397629
H        5.59765905       5.68240325       2.48951939      -0.22323442      -0.72035433       0.81155918
H        5.39625895       1.75695611       3.99269271      -1.28331262      -2.25207154      -1.79842427
H        2.83883871       8.71114326       6.59014492      -1.53102576      -0.37628867       0.97551113
H        1.74292962       5.55361280       8.72932210       0.23312880      -1.42167879      -0.83329064
H        6.31669233       5.61883230       0.86473793      -1.31873142      -0.26133785       2.08858679
H        3.85907546       1.05067135       3.55756009       0.82166847      -0.13281667       0.30989192
H        1.01762696       8.38256403       6.71779180       2.09849115       0.08142605       1.11401356
H        1.63392002       4.15440478       7.55271991       1.21023088       1.45756260      -0.64762821
H        4.61537831       5.41919763       1.03672707       2.03927250      -0.28281197       2.30009492
H        4.89296945       1.42750075       2.38349322       0.70078114       0.04727503      -2.00292954
H        1.99989030       9.06074350       8.04287142      -0.06698690       0.74868734       1.50935709
H        2.38196098       3.85293373       9.12612861      -1.41727708       1.29949492      -0.16622269
H        5.64254360       4.20287472       1.40459827       0.19970192      -1.70028498       1.43395284
H        1.35293472       0.29009592       1.51485961      -0.57277761       1.53612546       0.36090371
H        5.94108411       9.72302152       3.56259731      -0.93129260       1.58915537      -1.18569743
H        2.18560256       1.62758381       0.83745847      -2.21750105       0.09677068       1.33266827
H        4.30079481       8.31234100       9.54617939       2.01500043      -0.25275981      -1.14290053
H        5.60147774       3.14024965       6.23144726       0.10850237      -0.78653217       0.13970174
H        2.93457358       6.70170143       4.09690146      -1.60206458      -1.33484315      -0.29728405
H        1.67463860       1.77903377       2.41517987      -0.09846888       0.37869822       1.04364718
H        5.18644831       9.48578567       8.72731868       0.42609525      -1.38890615       0.27699666
H        3.81640864       3.21121203       6.26145611       2.42354950       0.88284637      -0.89221718
H        1.17936609       6.84617397       4.00362529       1.47464789      -0.70285793      -0.35056376
H        0.44329381       1.79347578       1.26235457       0.47917263      -0.27058556      -0.12799478
H        6.24447959       8.22543808       9.34491006      -2.56743020      -0.14289195      -0.02481272
H        5.09745256       4.70236123       5.95052204      -1.74303391      -2.12839066       0.92968124
H        1.84390502       5.34313053       4.51111193       0.57134260       0.59325087      -0.64991275
H        2.04293513       5.96101546       2.71121892       0.52270718       0.49419469       3.94975377
H        4.71332822       3.87967862       7.49911292       0.95640375       0.12266061      -0.71938518
H        5.15142202       7.95667093       8.09995179      -0.27282788      -1.37478588      -2.31612399
H        1.71199031       9.74442500       6.44520556      -0.59531832       3.89620205      -0.66035651
S        2.10557977       7.27545107       0.53240972      -0.49510527       1.89813401      -0.06305891
S        4.56781268       2.92233173      10.02138608      -1.14546599      -0.42497188      -3.08458450
S        5.37734003       7.34891813       5.24440988      -2.89266974      -0.23625330      -0.91317178
S        1.72812400       2.83596754       4.95511927       0.40621468       0.32963243       1.00469973
N        1.67612498       4.52366400       8.52163968      -0.25380771      -1.20664244       0.45062727
N        5.54475435       5.16272297       1.62824191      -0.89051940       3.16645509      -5.88113719
N        4.85964860       1.01676516       3.28052112       0.81315887       0.15221675       5.51879809
N        1.88968012       9.03120741       7.06057492       0.30586511      -4.49674295      -3.37213445
N        1.34817549       1.37807451       1.55379267       2.96091621      -2.44734013      -3.11338905
N        5.24701640       8.43244538       8.93814213      -0.16809260       3.42782931       3.04871090
N        4.81593507       3.73759388       6.46837251      -1.52771766       1.96973731       0.20677852
N        2.02245908       6.18001606       3.86269443      -0.56277542       1.20170976      -2.54516910
O        3.03484353       6.32328495       1.22255901      -1.37125760       1.31254701      -1.65882903
O        5.34765490       2.33274335       0.99558473      -0.92693294       0.16433581      -1.11382782
O        6.32402775       7.12676706       6.34963865      -0.29849243       0.27075871       0.23026659
O        2.93681801       2.09176195       5.55138711      -2.47019644       1.52502799      -1.13199228
O        1.66789907       8.36108539       1.44527091       1.09250144      -1.25019857      -0.71576740
O        4.99266074       4.20618869       9.40155716      -0.01612752      -0.81119987       0.72714913
O        4.81567661       6.05011110       4.71894060       0.96018605       1.25053689       1.21596837
O        1.59902177       4.21042923       5.60935740       0.65295297      -2.04500451      -0.65668585
O        2.54631860       8.32979587       9.60165452       0.15221471      -1.55928440       2.31545086
O        4.90124837       1.82425629       8.99582252      -1.11957778       1.96211360       3.21741639
O        6.10360694       7.94924317       4.10118548      -0.18587089       0.76319099       0.56528243
O        0.47229488       2.12284524       5.28369878       0.42010469      -0.46227432      -0.15425467
O        0.83807242       6.59623424       0.09954777       1.28173564      -0.42924842      -0.42809245
O        3.04311398       3.07908740      10.29518031       2.66076416      -0.91314504      -0.85875898
O        4.20504559       8.21859634       5.70543335       2.33526513      -1.25064656      -0.73443625
O        1.83661001       2.96648039       3.48751307       0.54428115       0.34875640       1.72958937
60
Lattice="6.71258078 0.0 0.0 0.37349916 9.40483214 0.0 -0.2624063 0.33479531 10.36931506" Properties=species:S:1:pos:R:3:forces:R:3 energy=-408.22430148 stress="0.00987266446448449 -0.009380492827623215 0.0015419898392765264 -0.009380492827623215 0.01614869951546356 -0.0124251258953335 0.0015419898392765264 -0.0124251258953335 0.033159121117041834" free_energy=-408.22430148 pbc="T T T"
H        1.83834152       3.60480393       9.20933639      -0.66740052       0.24389673      -0.29866031
H        5.28180337       5.32037710       2.86357646      -1.45150328       0.91737690       0.34673132
H        5.76806658       1.02294779       3.88140510       2.58415028       1.34077580       1.74350842
H        2.61859154       8.85897963       6.61603778      -0.12776351      -0.93346331       1.05897142
H        0.43802895       4.50916070       9.00140829       0.02402598      -0.31896268      -0.60603971
H        5.83796957       5.96587487       1.50918983       2.17494163       0.67241019       0.02464128
H        4.15910967       1.01598175       3.76060901      -0.25789131       0.13044962       0.02963570
H        1.12147266       8.31466923       6.69006546      -2.32034051      -1.25084496      -0.10354170
H        1.45410494       3.96262221       7.67932777      -0.56693667       0.22536024      -1.20382725
H        4.42750705       5.62260696       1.16314017       0.04626514      -2.24019827       2.82554334
H        5.15651880       0.95811977       2.29147232      -0.39733283      -0.85133991       3.21310690
H        1.77546290       9.19193067       8.05579115      -0.45733648      -0.74373822      -0.10869834
H        2.05261915       5.11018798       8.89417423      -1.26058627      -0.16145032      -0.85253967
H        5.76216867       4.35244441       1.76286019      -1.04241147       0.12956849      -1.55169535
H        1.77477942       0.81929792       1.37191482       0.79377111       2.64132114      -1.41447245
H        5.45459388       8.91701774       3.55249903       0.30059565       2.48088375      -0.22092766
H        2.49581278       2.26606807       0.50645881       1.11089128       0.03762023       0.02622500
H        3.89214433       7.54586603       9.32273501      -0.80433822      -1.49898314      -1.22605990
H        5.64759676       2.79406929       5.70631029       0.39925780       0.30402250      -0.49951124
H        3.14855337       6.84542243       4.35175153      -1.76322827      -1.14182329       1.80125207
H        1.92784023       2.28947992       2.15475891       0.45050616       0.38419313      -0.74146659
H        4.86957748       8.66068368       9.10322885       1.65962417      -1.08680345       1.02128228
H        4.05045369       2.86834313       5.76033878      -4.41982644      -2.56429164      -1.18759762
H        1.50408445       7.02925303       4.31060380      -1.54196998       1.00383728      -0.62662065
H        0.82730313       2.15948183       1.01205324      -0.30317680       0.41591323      -0.72947939
H        5.44500544       6.92742050       9.59632565      -0.01457543       2.29608470      -0.72618544
H        4.74306478       4.22162279       5.97970828       0.50877173       3.12477587      -1.15932279
H        1.93435178       5.52993842       4.76145478       0.73874736      -0.20988758      -0.08347417
H        2.52924392       6.19122332       3.22559269      -1.92715656      -0.74420293      -1.25326202
H        5.07835233       3.21530665       7.20295677      -1.17913058      -0.32468225      -1.94547039
H        5.21631987       7.53294076       7.98574549      -0.89665933      -0.84552129       0.73830021
H        1.30047081       0.47440957       6.59825233      -2.33006020       4.28609111      -2.21953604
S        2.01026986       6.82533253       0.19167306      -2.00882312       0.38296352       3.39297929
S        4.92121904       2.85407480      10.02742080      -0.56699979       0.07238510       1.37441435
S        5.39743390       7.20796805       5.45541227      -1.57011111       0.25944745       0.48042753
S        1.34683014       2.70217741       5.02163624      -1.76252278      -0.91138451      -1.18878843
N        1.36961406       4.31897226       8.61989558       2.47633534      -0.01297545       2.91151286
N        5.22958150       5.25443328       1.85094317       0.31076294       0.23121805      -1.11010041
N        5.03427858       0.65756075       3.38120323      -1.91145560      -2.83303811      -4.57165722
N        1.66401944       9.04574818       7.04631178       5.29266111      -1.74772675       1.73797163
N        1.83624789       1.91703708       1.18668795      -1.69775545      -3.66226107       3.15838366
N        4.85622251       7.60578208       9.00048459       0.83735626       1.69910082      -0.00557769
N        4.82833713       3.26844924       6.08474881       4.90195617      -0.77011770       5.45434928
N        2.19458686       6.33761227       4.18786118       3.75757340       0.91393799       0.22145085
O        2.44743916       6.54226372       9.44352384       0.28414362       0.05393307      -0.31916053
O        6.11379193       2.70684192       0.84595786      -0.35641165      -0.10139620      -1.12734523
O        6.23699883       7.22468102       6.73201504      -1.11818257       0.74255694      -2.44328379
O        2.68868494       2.09611966       4.85137831      -0.68201286       0.31091644      -0.57606391
O        2.65635633       6.31582981       1.50952787      -0.75781907       0.93325553      -2.71238282
O        5.55412163       3.44181679       8.79130150      -1.06118504      -0.84480888       1.35473493
O        4.87964648       5.82651575       5.29546590       0.27991783       1.65559119      -0.25725978
O        1.42079243       3.75564003       6.04485930       0.20565324       0.19466477      -0.89049532
O        2.15612156       8.30113513       0.10659988      -0.15686338      -1.39792836      -0.08647190
O        4.61160446       1.42129125       9.90905984       0.33892777       0.96296667      -0.50833598
O        6.16093654       7.58783054       4.22543668       0.16827521      -0.21799337       1.05762526
O        0.41159422       1.61437747       5.52983108       0.80380824       1.19947206      -0.62900227
O        0.53435900       6.40816816       0.18232947       2.66308096       0.52999383       0.07235441
O        3.96077765       3.27475766       0.07729028       0.60619798      -0.59722725      -1.39397470
O        4.22695184       8.21849687       5.49723016       1.91347039      -1.99270293       0.50515128
O        0.72848195       3.21885040       3.73459188       1.74809834      -0.77123054       2.02773539
60
Lattice="6.12589659 0.0 0.0 -0.32025651 7.97116664 0.0 0.30022041 1.08411911 10.93901073" Properties=species:S:1:pos:R:3:forces:R:3 energy=-407.594493 stress="0.030234553838273063 0.0030661473561804206 0.0043392321668809615 0.0030661473561804206 0.049620167700552185 0.001429874715595401 0.0043392321668809615 0.001429874715595401 0.04165264804368315" free_energy=-407.594493 pbc="T T T"
H        1.48799635       5.42446188       9.53160231       0.77517441      -0.61486269      -0.09727714
H        5.03982758       4.94758631       2.13326833      -0.29027263      -1.45038663       1.84962227
H        5.08650910       8.18048846       2.91941434      -1.41379444       0.54007521       0.01248476
H        2.70975579       8.21719834       7.27816698       0.69624757      -1.40029645       0.03619337
H        0.86940338       4.13336821       8.82349608       0.24762205      -0.45436115      -0.46368838
H        5.30294498       3.43765021       3.22970387      -0.57176429       1.75373415      -1.33254570
H        4.30979416       0.97659632       1.59575707       1.59901681      -0.79942214       1.21305279
H        1.86355415       1.32536998       7.24451060      -0.21535646      -1.91939459       0.70688586
H        2.56777140       4.48243678       8.53516203      -0.98183617       0.50752555       0.14508013
H        4.66601868       3.41981766       1.58525048      -0.82618189       1.06868584       2.53038011
H        3.64042056       7.35911645       2.22900710       1.59731948       2.95720749       1.28976493
H        1.00291058       7.65391291       7.49981945       0.90020322       0.37095274      -0.20445784
H        1.27955965       5.53463439       8.02481211      -0.14174113      -0.09059749      -1.58349099
H        3.76300270       4.11839315       3.00423084      -0.52765206       0.01910733      -0.10022085
H        2.21007862       1.38484717       0.86149752      -1.39710651       0.48567575      -0.19295981
H        3.75126484       0.94364876       3.03180393      -0.02257377      -0.02898065       2.26203000
H        1.15668337       1.92044896       1.97912717      -0.54131512       1.68912557       3.20900457
H        4.35522272       8.39264666       9.39329460      -0.24323565      -2.14213155       1.16237803
H        4.70967510       4.21126022       6.49529895      -0.21153700      -1.11559743       0.00937318
H        2.99548100       6.47359533       4.39147559      -1.39365177       0.93435668       1.42971166
H        0.88217690       0.24286173       1.30925880       0.75783996       3.03442615       0.22437156
H        5.36323178       7.65122593      10.67465816      -3.19757314      -0.56580298      -1.64829432
H        4.04982651       2.92152128       5.56756681       0.90888656       0.73916581       2.53654904
H        1.56925259       7.55617733       4.07962573       0.67873196       1.58597136       1.32274980
H        0.50289902       1.71610349       0.44251427       1.46112422      -0.12053645       0.53539578
H        3.65791314       7.18206336      10.41764249      -3.47277619      -0.74463810       2.24872704