68
Lattice="6.111107 0.0 0.0 0.0 7.290786 0.0 0.0 0.0 15.374977" Properties=species:S:1:pos:R:3:forces:R:3 stress="0.0306620626978506 0.0 -0.0 0.0 0.01772646637785716 -0.0 -0.0 -0.0 0.018464418726337715" free_energy=-422.64605562 energy=-422.64605562 pbc="T T T"
H        1.52778000       1.21492000       7.91622000       0.00000000       0.37120200      -0.04118400
H        1.52778000       4.86031000      15.14624000       0.00000000       0.37120200       0.04118400
H        4.58333000       6.07586000       7.45875000       0.00000000      -0.37120200       0.04118400
H        4.58333000       2.43047000       0.22873000       0.00000000      -0.37120200      -0.04118400
H        1.52778000       2.77210000       8.51628000       0.00000000      -0.07888200      -0.11857800
H        1.52778000       6.41749000      14.54619000       0.00000000      -0.07888200       0.11857800
H        4.58333000       4.51869000       6.85870000       0.00000000       0.07888200       0.11857800
H        4.58333000       0.87330000       0.82879000       0.00000000       0.07888200      -0.11857800
H        2.36733000       2.43034000       7.10178000      -0.17003600      -0.03513100       0.13425800
H        0.68822000       6.07573000       0.58571000       0.17003600      -0.03513100      -0.13425800
H        5.42289000       4.86045000       8.27320000      -0.17003600       0.03513100      -0.13425800
H        3.74377000       1.21505000      14.78927000       0.17003600       0.03513100       0.13425800
H        3.74377000       4.86045000       8.27320000       0.17003600       0.03513100      -0.13425800
H        5.42289000       1.21505000      14.78927000      -0.17003600       0.03513100       0.13425800
H        0.68822000       2.43034000       7.10178000       0.17003600      -0.03513100       0.13425800
H        2.36733000       6.07573000       0.58571000      -0.17003600      -0.03513100      -0.13425800
H        1.52778000       2.76560000      13.39931000       0.00000000      -0.24245100      -0.20823200
H        1.52778000       6.41099000       9.66316000       0.00000000      -0.24245100       0.20823200
H        4.58333000       4.52519000       1.97567000       0.00000000       0.24245100       0.20823200
H        4.58333000       0.87979000       5.71182000       0.00000000       0.24245100      -0.20823200
H        1.52778000       1.19095000      12.80151000       0.00000000       0.18032200      -0.09813000
H        1.52778000       4.83634000      10.26095000       0.00000000       0.18032200       0.09813000
H        4.58333000       6.09984000       2.57346000       0.00000000      -0.18032200       0.09813000
H        4.58333000       2.45444000       5.11402000       0.00000000      -0.18032200      -0.09813000
H        2.36594000       2.40616000      11.99503000      -0.21510100      -0.01882300       0.17696100
H        0.68961000       6.05155000      11.06743000       0.21510100      -0.01882300      -0.17696100
H        5.42149000       4.88463000       3.37994000      -0.21510100       0.01882300      -0.17696100
H        3.74517000       1.23924000       4.30755000       0.21510100       0.01882300       0.17696100
H        3.74517000       4.88463000       3.37994000       0.21510100       0.01882300      -0.17696100
H        5.42149000       1.23924000       4.30755000      -0.21510100       0.01882300       0.17696100
H        0.68961000       2.40616000      11.99503000       0.21510100      -0.01882300       0.17696100
H        2.36594000       6.05155000      11.06743000      -0.21510100      -0.01882300      -0.17696100
S        4.58333000       1.21195000       9.10654000       0.00000000      -0.32314700      -0.35681500
S        4.58333000       4.85735000      13.95593000       0.00000000      -0.32314700       0.35681500
S        1.52778000       6.07883000       6.26844000       0.00000000       0.32314700       0.35681500
S        1.52778000       2.43344000       1.41905000       0.00000000       0.32314700      -0.35681500
S        4.58333000       2.88852000      10.62054000       0.00000000       0.52263800      -0.53129700
S        4.58333000       6.53391000      12.44192000       0.00000000       0.52263800       0.53129700
S        1.52778000       4.40226000       4.75443000       0.00000000      -0.52263800       0.53129700
S        1.52778000       0.75687000       2.93305000       0.00000000      -0.52263800      -0.53129700
N        1.52778000       2.21239000       7.65718000       0.00000000      -0.17278800      -0.09018500
N        1.52778000       5.85778000       0.03030000       0.00000000      -0.17278800       0.09018500
N        4.58333000       5.07840000       7.71779000       0.00000000       0.17278800       0.09018500
N        4.58333000       1.43300000      15.34467000       0.00000000       0.17278800      -0.09018500
N        1.52778000       2.18417000      12.54866000       0.00000000       0.25893900      -0.18899000
N        1.52778000       5.82956000      10.51381000       0.00000000       0.25893900       0.18899000
N        4.58333000       5.10662000       2.82632000       0.00000000      -0.25893900       0.18899000
N        4.58333000       1.46123000       4.86117000       0.00000000      -0.25893900      -0.18899000
O        3.32664000       3.60995000      10.17630000       0.54478400      -0.31223400       0.12827400
O        5.84002000       7.25534000      12.88617000      -0.54478400      -0.31223400      -0.12827400
O        0.27108000       3.68084000       5.19868000       0.54478400       0.31223400      -0.12827400
O        2.78447000       0.03545000       2.48881000      -0.54478400       0.31223400       0.12827400
O        2.78447000       3.68084000       5.19868000      -0.54478400       0.31223400      -0.12827400
O        0.27108000       0.03545000       2.48881000       0.54478400       0.31223400       0.12827400
O        5.84002000       3.60995000      10.17630000      -0.54478400      -0.31223400       0.12827400
O        3.32664000       7.25534000      12.88617000       0.54478400      -0.31223400      -0.12827400
O        3.34863000       0.42849000       9.34004000       0.60066500       0.43080200      -0.20926500
O        5.81803000       4.07388000      13.72243000      -0.60066500       0.43080200       0.20926500
O        0.29308000       6.86230000       6.03494000       0.60066500      -0.43080200       0.20926500
O        2.76248000       3.21691000       1.65255000      -0.60066500      -0.43080200      -0.20926500
O        2.76248000       6.86230000       6.03494000      -0.60066500      -0.43080200       0.20926500
O        0.29308000       3.21691000       1.65255000       0.60066500      -0.43080200      -0.20926500
O        5.81803000       0.42849000       9.34004000      -0.60066500       0.43080200      -0.20926500
O        3.34863000       4.07388000      13.72243000       0.60066500       0.43080200       0.20926500
O        4.58333000       1.91688000       7.79136000       0.00000000      -0.35995500       0.57211900
O        4.58333000       5.56227000      15.27110000       0.00000000      -0.35995500      -0.57211900
O        1.52778000       5.37391000       7.58362000       0.00000000       0.35995500      -0.57211900
O        1.52778000       1.72851000       0.10387000       0.00000000       0.35995500       0.57211900
52
Lattice="6.621953 0.0 0.0 0.0 8.243429 0.0 0.0 0.0 10.204092" Properties=species:S:1:pos:R:3:forces:R:3 stress="0.01366192073697247 -0.0 -0.0 -0.0 0.024080990509482786 -0.0 -0.0 -0.0 0.01595778497081912" free_energy=-312.87639421 energy=-312.87639421 pbc="T T T"
H        0.32714000       7.09317000       8.96115000       0.28216300       0.13381300       0.08909800
H        3.63811000       5.27198000       1.24294000       0.28216300      -0.13381300      -0.08909800
H        6.29482000       2.97145000       6.34499000      -0.28216300       0.13381300      -0.08909800
H        2.98384000       1.15026000       3.85911000      -0.28216300      -0.13381300       0.08909800
H        4.30939000       7.96159000       9.70081000       0.01935200       0.31368700      -0.11785800
H        0.99841000       4.40356000       0.50329000       0.01935200      -0.31368700       0.11785800
H        2.31256000       3.83987000       5.60533000      -0.01935200       0.31368700       0.11785800
H        5.62354000       0.28184000       4.59876000      -0.01935200      -0.31368700      -0.11785800
H        3.93607000       0.20754000       7.57492000       0.03688100       0.24985200       0.23803800
H        0.62509000       3.91418000       2.62918000       0.03688100      -0.24985200      -0.23803800
H        2.68588000       4.32925000       7.73122000      -0.03688100       0.24985200      -0.23803800
H        5.99686000       8.03589000       2.47287000      -0.03688100      -0.24985200       0.23803800
H        0.33638000       1.65405000       7.88583000      -0.02161400       0.19884700       0.16130300
H        3.64735000       2.46766000       2.31826000      -0.02161400      -0.19884700      -0.16130300
H        6.28558000       5.77577000       7.42030000       0.02161400       0.19884700      -0.16130300
H        2.97460000       6.58938000       2.78379000       0.02161400      -0.19884700       0.16130300
H        0.17565000       2.21340000       8.36014000       0.04214800      -0.10649300      -0.09882700
H        3.48662000       1.90831000       1.84395000       0.04214800       0.10649300       0.09882700
H        6.44631000       6.33512000       6.94600000      -0.04214800      -0.10649300       0.09882700
H        3.13533000       6.03003000       3.25810000      -0.04214800       0.10649300      -0.09882700
H        4.31158000       1.90834000       7.96232000      -0.06175100      -0.18119400       0.21219600
H        1.00060000       2.21338000       2.24177000      -0.06175100       0.18119400      -0.21219600
H        2.31037000       6.03005000       7.34381000       0.06175100      -0.18119400      -0.21219600
H        5.62135000       6.33509000       2.86028000       0.06175100       0.18119400       0.21219600
S        2.09072000       0.64400000       5.76391000      -0.43681200      -0.23989500       0.09963300
S        5.40170000       3.47771000       4.44018000      -0.43681200       0.23989500      -0.09963300
S        4.53123000       4.76572000       9.54222000       0.43681200      -0.23989500      -0.09963300
S        1.22025000       7.59943000       0.66187000       0.43681200       0.23989500       0.09963300
N        4.24879000       0.93058000       8.29776000      -0.09751900       0.02639700      -0.07518500
N        0.93781000       3.19114000       1.90633000      -0.09751900      -0.02639700       0.07518500
N        2.37316000       5.05229000       7.00837000       0.09751900       0.02639700       0.07518500
N        5.68414000       7.31285000       3.19572000       0.09751900      -0.02639700      -0.07518500
N        4.45298000       0.73651000       9.49675000      -0.11451400      -0.29872900      -0.21004700
N        1.14200000       3.38521000       0.70734000      -0.11451400       0.29872900       0.21004700
N        2.16897000       4.85822000       5.80938000       0.11451400      -0.29872900       0.21004700
N        5.47995000       7.50692000       4.39471000       0.11451400       0.29872900      -0.21004700
O        3.10765000       7.89889000       6.18514000      -0.49197200       0.66554000      -0.13524800
O        6.41863000       4.46625000       4.01895000      -0.49197200      -0.66554000       0.13524800
O        3.51430000       3.77718000       9.12100000       0.49197200       0.66554000       0.13524800
O        0.20333000       0.34453000       1.08309000       0.49197200      -0.66554000      -0.13524800
O        0.72476000       0.19969000       5.99784000       0.87270800       0.36028500      -0.14011000
O        4.03574000       3.92203000       4.20625000       0.87270800      -0.36028500       0.14011000
O        5.89719000       4.32140000       9.30830000      -0.87270800       0.36028500       0.14011000
O        2.58622000       8.04374000       0.89580000      -0.87270800      -0.36028500      -0.14011000
O        2.39457000       1.99460000       6.25113000      -0.07967800      -0.63263700      -0.24669200
O        5.70555000       2.12712000       3.95296000      -0.07967800       0.63263700       0.24669200
O        4.22738000       6.11631000       9.05501000       0.07967800      -0.63263700       0.24669200
O        0.91641000       6.24883000       1.14908000       0.07967800       0.63263700      -0.24669200
O        2.15288000       0.71016000       4.14265000       0.39157900       0.22219300       0.37547500
O        5.46386000       3.41155000       6.06144000       0.39157900      -0.22219300      -0.37547500
O        4.46907000       4.83188000       0.95940000      -0.39157900       0.22219300      -0.37547500
O        1.15809000       7.53327000       9.24469000      -0.39157900      -0.22219300       0.37547500
132
Lattice="11.374965 0.0 0.0 0.0 10.443673 0.0 0.0 2.945297 10.07991" Properties=species:S:1:pos:R:3:forces:R:3 stress="0.02084562935597169 -0.0 -0.0 -0.0 0.020833389756575834 -0.00038853394308623285 -0.0 -0.00038853394308623285 0.018420784336038668" free_energy=-801.36334419 energy=-801.36334419 pbc="T T T"
H        6.77372000      12.24462000       9.91875000       0.06740000       0.03756900       0.23733200
H        1.08624000       6.36619000       0.16116000       0.06740000      -0.03756900      -0.23733200
H        4.60124000       1.14435000       0.16116000      -0.06740000      -0.03756900      -0.23733200
H       10.28872000       7.02278000       9.91875000      -0.06740000       0.03756900       0.23733200
H        6.40568000       8.96987000       1.42093000       0.22996900       0.10045200      -0.11823100
H        0.71819000       9.64093000       8.65898000       0.22996900      -0.10045200       0.11823100
H        4.96929000       4.41910000       8.65898000      -0.22996900      -0.10045200       0.11823100
H       10.65677000       3.74804000       1.42093000      -0.22996900       0.10045200      -0.11823100
H        7.04117000      10.47978000       1.03377000      -0.02531000      -0.27320600      -0.06947400
H        1.35369000       8.13103000       9.04614000      -0.02531000       0.27320600       0.06947400
H        4.33379000       2.90919000       9.04614000       0.02531000       0.27320600       0.06947400
H       10.02128000       5.25794000       1.03377000       0.02531000      -0.27320600      -0.06947400
H        8.03562000       9.10916000       0.96608000      -0.18124700       0.13196200      -0.08780000
H        2.34813000       9.50165000       9.11383000      -0.18124700      -0.13196200       0.08780000
H        3.33935000       4.27981000       9.11383000       0.18124700      -0.13196200       0.08780000
H        9.02683000       3.88732000       0.96608000       0.18124700       0.13196200      -0.08780000
H        8.02009000       1.90698000       6.51825000      -0.18691000       0.09787900      -0.04918800
H        2.33261000       6.26015000       3.56166000      -0.18691000      -0.09787900       0.04918800
H        3.35488000      11.48199000       3.56166000       0.18691000      -0.09787900       0.04918800
H        9.04236000       7.12882000       6.51825000       0.18691000       0.09787900      -0.04918800
H        7.06134000       3.25945000       6.51156000       0.01081400      -0.20920100      -0.03118500
H        1.37386000       4.90768000       3.56835000       0.01081400       0.20920100       0.03118500
H        4.31363000      10.12952000       3.56835000      -0.01081400       0.20920100       0.03118500
H       10.00111000       8.48129000       6.51156000      -0.01081400      -0.20920100      -0.03118500
H        6.38140000      12.22101000       6.88665000       0.18512800       0.12618900      -0.16431900
H        0.69392000       6.38980000       3.19326000       0.18512800      -0.12618900       0.16431900
H        4.99356000       1.16796000       3.19326000      -0.18512800      -0.12618900       0.16431900
H       10.68105000       6.99917000       6.88665000      -0.18512800       0.12618900      -0.16431900
H        6.91789000       2.14854000       5.26422000       0.05493100       0.06422200       0.32186900
H        1.23041000       6.01860000       4.81569000       0.05493100      -0.06422200      -0.32186900
H        4.45708000      11.24043000       4.81569000      -0.05493100      -0.06422200      -0.32186900
H       10.14456000       7.37037000       5.26422000      -0.05493100       0.06422200       0.32186900
H        7.68579000       6.38866000       3.01925000      -0.08910200      -0.15000600       0.17809300
H        1.99831000      12.22215000       7.06066000      -0.08910200       0.15000600      -0.17809300
H        3.68917000       7.00031000       7.06066000       0.08910200       0.15000600      -0.17809300
H        9.37666000       1.16682000       3.01925000       0.08910200      -0.15000600       0.17809300
H        6.30745000       6.16889000       4.01883000       0.25604100      -0.12826600      -0.06919000
H        0.61997000       1.99824000       6.06108000       0.25604100       0.12826600       0.06919000
H        5.06751000       7.22008000       6.06108000      -0.25604100       0.12826600       0.06919000
H       10.75500000      11.39073000       4.01883000      -0.25604100      -0.12826600      -0.06919000
H        7.85052000       5.68078000       4.55774000      -0.15213500      -0.03647600      -0.26462000
H        2.16304000       2.48636000       5.52217000      -0.15213500       0.03647600       0.26462000
H        3.52444000       7.70819000       5.52217000       0.15213500       0.03647600       0.26462000
H        9.21192000      10.90261000       4.55774000       0.15213500      -0.03647600      -0.26462000
H        7.07850000       4.85265000       3.33855000       0.03378900       0.16150600       0.04418500
H        1.39102000       3.31449000       6.74136000       0.03378900      -0.16150600      -0.04418500
H        4.29646000       8.53632000       6.74136000      -0.03378900      -0.16150600      -0.04418500
H        9.98394000      10.07448000       3.33855000      -0.03378900       0.16150600       0.04418500
H        9.24359000       4.37777000       8.60858000       0.22655000      -0.12240900       0.10224000
H        3.55611000       3.78936000       1.47133000       0.22655000       0.12240900      -0.10224000
H        2.13137000       9.01120000       1.47133000      -0.22655000       0.12240900      -0.10224000
H        7.81886000       9.59961000       8.60858000      -0.22655000      -0.12240900       0.10224000
H        9.80803000       2.80760000       8.86216000      -0.01374900       0.27621400       0.07313800
H        4.12055000       5.35953000       1.21775000      -0.01374900      -0.27621400      -0.07313800
H        1.56694000      10.58137000       1.21775000       0.01374900      -0.27621400      -0.07313800
H        7.25442000       8.02944000       8.86216000       0.01374900       0.27621400       0.07313800
H       10.89558000       4.10463000       8.99151000      -0.20454100      -0.12717400       0.07019600
H        5.20810000       4.06250000       1.08840000      -0.20454100       0.12717400      -0.07019600
H        0.47939000       9.28434000       1.08840000       0.20454100       0.12717400      -0.07019600
H        6.16687000       9.32647000       8.99151000       0.20454100      -0.12717400       0.07019600
H        9.66339000       0.95266000       0.06267000       0.04952700      -0.00436200      -0.20884300
H        3.97590000       7.21447000      10.01724000       0.04952700       0.00436200       0.20884300
H        1.71158000      12.43631000      10.01724000      -0.04952700       0.00436200       0.20884300
H        7.39906000       6.17450000       0.06267000      -0.04952700      -0.00436200      -0.20884300
S        7.07880000       2.47049000       2.07054000      -0.00431100       0.03492900       0.12639400
S        1.39132000       5.69664000       8.00937000      -0.00431100      -0.03492900      -0.12639400
S        4.29617000      10.91848000       8.00937000       0.00431100      -0.03492900      -0.12639400
S        9.98365000       7.69233000       2.07054000       0.00431100       0.03492900       0.12639400
N        7.07732000       9.46930000       0.81227000      -0.03509300      -0.00071500      -0.01798300
N        1.38984000       9.14151000       9.26764000      -0.03509300       0.00071500       0.01798300
N        4.29764000       3.91967000       9.26764000       0.03509300       0.00071500       0.01798300
N        9.98513000       4.24746000       0.81227000       0.03509300      -0.00071500      -0.01798300
N        7.08250000       2.25752000       6.28417000       0.01079300       0.01745800       0.04583200
N        1.39501000       5.90961000       3.79574000       0.01079300      -0.01745800      -0.04583200
N        4.29247000      11.13145000       3.79574000      -0.01079300      -0.01745800      -0.04583200
N        9.97995000       7.47936000       6.28417000      -0.01079300       0.01745800       0.04583200
N        7.22357000       5.79176000       3.74065000       0.07409500      -0.04505500      -0.03112600
N        1.53609000       2.37537000       6.33926000       0.07409500       0.04505500       0.03112600
N        4.15140000       7.59721000       6.33926000      -0.07409500       0.04505500       0.03112600
N        9.83888000      11.01360000       3.74065000      -0.07409500      -0.04505500      -0.03112600
N        9.91001000       3.79940000       9.14829000      -0.00627200      -0.00731400       0.01028000
N        4.22252000       4.36773000       0.93162000      -0.00627200       0.00731400      -0.01028000
N        1.46496000       9.58957000       0.93162000       0.00627200       0.00731400      -0.01028000
N        7.15244000       9.02124000       9.14829000       0.00627200      -0.00731400       0.01028000
N        9.97834000      10.85219000       8.41000000       0.01004800      -0.02598300       0.03173600
N        4.29085000       7.75861000       1.66991000       0.01004800       0.02598300      -0.03173600
N        1.39663000       2.53678000       1.66991000      -0.01004800       0.02598300      -0.03173600
N        7.08411000       5.63036000       8.41000000      -0.01004800      -0.02598300       0.03173600
N        7.22605000       9.03176000       5.23663000       0.02038300      -0.03617500       0.01706500
N        1.53857000       9.57905000       4.84328000       0.02038300       0.03617500      -0.01706500
N        4.14892000       4.35721000       4.84328000      -0.02038300       0.03617500      -0.01706500
N        9.83640000       3.80992000       5.23663000      -0.02038300      -0.03617500       0.01706500
O        7.03478000       3.80653000       1.38859000       0.02579700      -0.64686200       0.26888600
O        1.34730000       4.36060000       8.69132000       0.02579700       0.64686200      -0.26888600
O        4.34019000       9.58244000       8.69132000      -0.02579700       0.64686200      -0.26888600
O       10.02767000       9.02837000       1.38859000      -0.02579700      -0.64686200       0.26888600
O        8.32178000       1.74643000       1.65757000      -0.52923500       0.30534600       0.16916100
O        2.63429000       6.42070000       8.42234000      -0.52923500      -0.30534600      -0.16916100
O        3.05319000      11.64254000       8.42234000       0.52923500      -0.30534600      -0.16916100
O        8.74067000       6.96827000       1.65757000       0.52923500       0.30534600       0.16916100
O        5.88265000       1.66170000       1.66409000       0.53945400       0.31997600       0.15516200
O        0.19517000       6.50544000       8.41582000       0.53945400      -0.31997600      -0.15516200
O        5.49231000      11.72727000       8.41582000      -0.53945400      -0.31997600      -0.15516200
O       11.17979000       6.88353000       1.66409000      -0.53945400       0.31997600       0.15516200
O        7.06303000       2.68713000       3.54241000       0.00618500      -0.12008300      -0.78253900
O        1.37555000       5.48001000       6.53750000       0.00618500       0.12008300       0.78253900
O        4.31193000      10.70184000       6.53750000      -0.00618500       0.12008300       0.78253900
O        9.99941000       7.90896000       3.54241000      -0.00618500      -0.12008300      -0.78253900
O        8.87732000      11.48842000       8.44504000       0.42272200      -0.21317400       0.00570900
O        3.18984000       7.12238000       1.63487000       0.42272200       0.21317400      -0.00570900
O        2.49765000       1.90055000       1.63487000      -0.42272200       0.21317400      -0.00570900
O        8.18513000       6.26659000       8.44504000      -0.42272200      -0.21317400       0.00570900
O       11.07525000      11.47819000       8.42413000      -0.39270300      -0.24678100      -0.00387400
O        5.38776000       7.13262000       1.65578000      -0.39270300       0.24678100       0.00387400
O        0.29972000       1.91078000       1.65578000       0.39270300       0.24678100       0.00387400
O        5.98720000       6.25635000       8.42413000       0.39270300      -0.24678100      -0.00387400
O        9.96914000       9.58190000       8.37292000       0.00171000       0.51332500       0.03016600
O        4.28166000       9.02891000       1.70699000       0.00171000      -0.51332500      -0.03016600
O        1.40582000       3.80707000       1.70699000      -0.00171000      -0.51332500      -0.03016600
O        7.09330000       4.36006000       8.37292000      -0.00171000       0.51332500       0.03016600
O        7.04362000       7.92689000       5.85554000       0.07225600       0.44510000      -0.25317800
O        1.35613000      10.68392000       4.22437000       0.07225600      -0.44510000       0.25317800
O        4.33135000       5.46208000       4.22437000      -0.07225600      -0.44510000       0.25317800
O       10.01883000       2.70505000       5.85554000      -0.07225600       0.44510000      -0.25317800
O        8.05747000       9.87174000       5.71995000      -0.32300300      -0.33801400      -0.16877300
O        2.36999000       8.73906000       4.35996000      -0.32300300       0.33801400       0.16877300
O        3.31750000       3.51723000       4.35996000       0.32300300       0.33801400       0.16877300
O        9.00498000       4.64991000       5.71995000       0.32300300      -0.33801400      -0.16877300
O        6.59571000       9.28087000       4.17662000       0.28207600      -0.09017800       0.44192800
O        0.90822000       9.32994000       5.90329000       0.28207600       0.09017800      -0.44192800
O        4.77926000       4.10810000       5.90329000      -0.28207600       0.09017800      -0.44192800
O       10.46674000       4.05903000       4.17662000      -0.28207600      -0.09017800       0.44192800
52
Lattice="1e-08 -5.65434764 -2e-09 -7.62780361 -2.827174292 1.418308307 -0.207368883 -4e-09 -10.119671423" Properties=species:S:1:pos:R:3:forces:R:3 stress="-0.0014745690140081716 -0.0 4.744171086583864e-05 -0.0 -0.0015706133564372632 0.0 4.744171086583864e-05 0.0 -0.0013025467809897032" free_energy=-321.73619883 energy=-321.73619883 pbc="T T T"
H       -5.10825000      -4.83770000      -1.81574000      -0.00004100      -0.00183500       0.01167200
H       -2.63590000      -1.96424000      -1.73303000      -0.00541700      -0.00345300      -0.00927900
H       -2.73958000      -3.69011000      -6.79287000      -0.00541700       0.00345300      -0.00927900
H       -5.21193000      -6.47099000      -6.87557000      -0.00004100       0.00183500       0.01167200
H       -5.29124000      -4.98033000      -3.49162000      -0.00961800      -0.00376800       0.00399000
H       -2.40275000      -1.95479000      -0.07315000       0.00402500      -0.00855400      -0.00199500
H       -2.50644000      -3.69956000      -5.13298000       0.00402500       0.00855400      -0.00199500
H       -5.39492000      -6.32836000      -8.55145000      -0.00961800       0.00376800       0.00399000
H       -0.26314000      -4.98016000      -2.13451000       0.00394100       0.00424300      -0.00133400
H       -6.87786000      -7.21358000      -1.90846000       0.00178000      -0.00249600      -0.00651000
H       -6.98155000      -4.09512000      -6.96830000       0.00178000       0.00249600      -0.00651000
H       -0.36682000      -0.67419000      -7.19435000       0.00394100      -0.00424300      -0.00133400
H       -0.74008000      -3.62842000      -3.00891000      -0.00335200      -0.00314000       0.00544300
H       -7.06541000      -6.34706000      -0.52015000       0.00646500       0.00135100      -0.00083900
H       -7.16909000      -4.96163000      -5.57998000       0.00646500      -0.00135100      -0.00083900
H       -0.84376000      -2.02593000      -8.06875000      -0.00335200       0.00314000       0.00544300
H       -3.78655000      -4.77081000      -2.85046000      -0.00600800       0.00822700       0.00736500
H       -3.94140000      -1.97232000      -0.67384000      -0.00048600       0.00048200       0.00060400
H       -4.04509000      -3.68203000      -5.73368000      -0.00048600      -0.00048200       0.00060400
H       -3.89023000      -6.53789000      -7.91029000      -0.00600800      -0.00822700       0.00736500
H       -4.91678000      -3.48799000      -2.79688000      -0.00375900       0.00377800      -0.00388700
H       -2.94565000      -6.22927000      -0.83763000      -0.00088600      -0.00219400      -0.00400600