60
Lattice="5.75629072 0.0 0.0 -0.19313353 7.78012815 0.0 -0.20046651 0.31028355 10.8689902" Properties=species:S:1:pos:R:3:forces:R:3 energy=-358.47663763 stress="0.01576927006173925 -0.007962976212715937 0.011481726746714492 -0.007962976212715937 0.016865926670748235 0.0012790085396307887 0.011481726746714492 0.0012790085396307887 0.024520099188804743" free_energy=-358.47663763 pbc="T T T"
H        2.27615362       4.05850333       8.59413338      -0.64836707      -0.54861900       0.12225564
H        3.50450484       4.12501301       2.86949395      -0.59221961      -0.56363675       0.11886760
H        4.71609482       1.02018358       3.45300667       1.17852094       0.25120603       0.43968851
H        1.02666680       6.68562544       7.68861683      -0.06979158       1.50334858       0.42485454
H        1.11117894       4.53029888       9.78790239       0.08508472      -1.35790927      -2.27496212
H        3.92859340       3.44609772       1.26422757       0.74123548       1.22500730       1.86940087
H        4.33444884       7.80140388       2.08541478      -0.78111423       0.39147378       1.45044497
H        1.15242715       0.47673831       6.94425436       0.44239543      -1.33180561       1.09574147
H        0.75556178       3.06971938       8.82928746       1.13223759       1.27002675       0.33202165
H        5.06128730       3.52849873       2.60643439      -1.66699972      -0.04005228      -0.38443341
H        3.99538344       7.23308948       3.65280784       0.05266112      -0.26665723       0.42151930
H        1.59592661       0.66851966       8.55974193       0.07647291      -3.28757536      -2.06868713
H        0.70283248       4.65108000       7.94723347       1.35032841      -1.72217173       2.72488311
H        4.65969731       4.90884414       2.05275792       0.23147899       1.97277459      -1.26246899
H        1.16607748       2.55049855       1.01109760       0.13693057      -0.99541865       0.65010031
H        3.29575510       0.69699362       3.07031420      -3.58951253       0.87751788      -0.20011305
H        1.03459245       0.90207615       1.83525682      -0.69986615       1.32470770      -1.64026148
H        3.54055556       5.83631651       9.50667553       0.46275266       1.50446181       0.41812267
H        4.58154193       2.66878777       5.48684114       0.85016405       0.40502998      -0.77351762
H        1.27221607       5.77375834       5.23208929      -1.46763981       1.26859770       4.67016791
H        2.24472432       1.19343109       0.79974628      -0.95417248       1.12784235      -0.09486724
H        3.72675895       6.19710480       0.09129343      -0.71658801       0.94445593       0.77520885
H        5.04023913       2.74957920       7.26837362      -3.25176624      -0.86660395      -3.28944887
H        1.16554766       6.21034119       3.76491006       1.81723911      -1.77114776       0.91663933
H        0.75838622       1.27188966       0.04861384      -0.66451714      -0.48140199       0.48874300
H        5.02467385       6.54522086      10.10387709      -2.57733212       1.28148948      -0.69145219
H        3.60401288       1.83371056       6.43844460       0.70973040      -0.19246256       0.71327953
H        1.20053773       4.51241126       4.25917445       1.15360748       1.23142136      -0.03529680
H        2.76345195       5.43313430       4.49813431      -2.40015695       0.34543456      -0.47336178
H        3.47370139       3.49074743       6.57517008       1.86746728      -0.93190505      -0.41182059
H        3.54568894       7.52297369       9.54133620      -0.53316017       1.72387057      -0.40400019
H        2.35554694       7.69231540       7.36909101       2.78743062      -0.46126922      -0.64912153
S        1.05946005       5.74794015       0.82925135      -2.32514619      -0.62376150       0.58610740
S        3.96782649       2.41732853       9.85690853       2.53492408      -1.79501519       0.71941400
S        4.21273439       6.03882085       6.29817669       1.83008722      -0.39759850       3.05657098
S        1.31381475       2.02555250       4.72873831       1.61331752      -2.03565678      -3.89097316
N        1.26760467       4.02327903       8.81316701      -2.65221558       2.42124624      -1.22947862
N        4.21951454       4.02907257       2.16605867       1.23477378      -3.06660547      -0.16755934
N        4.15080368       0.27384525       3.05316521       3.20231722      -1.10520399      -1.76538069
N        1.44505007       7.65834358       7.70394645      -3.90741960       3.82537208       1.11071873
N        1.22626323       1.48817382       0.95538793       2.19533753      -0.85204855       0.62360575
N        3.83638582       6.72421980      10.02975590       3.70104492      -5.17927730      -0.76864452
N        4.19564843       2.67065237       6.41444989       0.05516775       1.09889505       3.78681006
N        1.64229120       5.46450187       4.42979271       0.58954299      -0.60390511      -5.02220517
O        2.24693202       6.07234874       1.57754589       0.96178793       0.63989364       0.14921785
O        5.35153669       1.88025123       9.37536531      -1.69807374       0.67985074       0.49944286
O       -0.25898519       5.69860385       7.02391493       0.31981721       0.17446159      -1.19767803
O        2.36940654       2.81536014       3.96759249      -1.15696952      -0.76598033       1.06908588
O       -0.17890036       6.36742255       1.55044004       2.12821615      -1.07774072      -1.02115361
O        2.94650136       1.76006437       9.01540576       0.36599280       0.02174665       1.22423161
O        3.27359125       5.07713969       6.92908853      -1.22942840       0.73995270      -1.32233884
O       -0.00873882       2.30692705       4.12846496      -0.88514712       1.03477504      -0.59247581
O        0.90142357       6.56113678      10.28843146      -0.50017978       0.10574892       0.86740169
O        4.11000393       1.82000771       0.48122302      -0.76534441      -0.81137449      -1.24677462
O        4.41060401       5.89928875       4.83228772      -0.67930541      -0.77766600      -0.01409435
O        1.29387216       2.30881796       6.11577623       0.22876121       0.90261847       2.62059088
O        0.89550841       4.25216848       0.74501635      -0.00677408       1.14042196       0.22474448
O        3.90756171       3.84295024       9.76209126      -0.06879713       1.82138454      -0.80392849
O        3.83794432       7.41029242       6.62142383       0.23836917       0.15762428      -0.47381171
O        1.56189494       0.56920308       4.49651722       0.21280948       0.49781211       0.00042854
60
Lattice="6.28233916 0.0 0.0 0.20064612 7.84249675 0.0 0.16811571 -0.04264803 10.46637372" Properties=species:S:1:pos:R:3:forces:R:3 energy=-357.64397111 stress="0.012557272399814561 -0.0003202914418659829 -0.007696784836270156 -0.0003202914418659829 0.00535314915887206 -0.01915019796923503 -0.007696784836270156 -0.01915019796923503 0.003234481163139439" free_energy=-357.64397111 pbc="T T T"
H        1.30057716       4.54985738       8.39948931       1.55315444      -0.13971223      -0.30513134
H        4.18312822       5.37926012       2.59315692      -0.54902246      -1.56057486      -0.40235365
H        4.09765672       7.51397589       3.07578213       2.46981473       0.80151359       0.02489069
H        1.50369763       0.45943019       7.08651360       1.09650928      -0.07367141       1.68372636
H        1.64955815       3.09783977       8.95152678      -0.05070415      -0.61144917      -0.23674939
H        3.45450439       3.80076159       2.70388100      -0.58707474      -0.48453981       0.20206733
H        4.89087302       0.71736111       2.20358572       0.30738580      -0.96068832       0.26228008
H        1.77513579       7.25711265       8.51131613       0.21471725      -0.21779800      -0.89301625
H        2.97653925       3.81225321       8.33775194       1.39725876       1.18904220       1.22095485
H        5.06626421       4.25509693       3.41031078      -2.21942558      -0.20951387      -2.03684686
H        5.25179808       0.39002388       3.65888108       3.05070111       3.12465204       6.81970969
H        2.62734140       7.03962546       7.02377690       0.79837195      -2.15456637      -0.46479562
H        1.90207853       3.39640781       7.30946547      -1.04299094      -0.58594291      -0.44082493
H        4.79912538       4.11846215       1.66838288      -0.82526520      -0.20371239       1.04964781
H        1.83718465       2.03199089       1.68899996       1.33178320       3.31092502       0.27776130
H        5.70889083       6.99041663       2.57057687       0.57527577       0.31704740       0.11805582
H        1.91021716       0.61858850       1.89775106      -1.34662291      -1.29411101       0.53214541
H        4.10745777       5.75975266      10.01604721       0.42628077       0.09812727       0.71281018
H        4.78035190       2.98915231       6.58169214       2.07256952       3.00229038       2.84535847
H        2.79288860       5.87314702       5.09644766      -2.28024504      -0.29778829       0.25877324
H        2.43579946       0.91509409       0.51125399       0.18634793       1.12574626      -1.43521052
H        5.78531638       6.03981424      10.19631448       3.33392034      -1.09700098       2.21718365
H        3.86188708       2.70463007       5.35953671      -1.76484426       0.52276177      -0.43395286
H        1.73851281       6.39869093       3.79697934      -0.66240014       0.32707269       1.31688634
H        0.71510533       1.39599658       0.84407222       0.70651107      -0.89570798      -0.44781324
H        5.09076162       5.67373725       8.70235895       0.66969046       0.42600754       1.45554631
H        4.34047829       1.44967501       6.31845059       0.65596317       0.57281312      -0.50685269
H        0.97592066       5.57162377       5.14293511       0.80490183      -0.48476979      -0.86416723
H        2.14810721       4.98551752       3.93392911      -0.62335258      -2.99026335      -0.37398156
H        5.24402197       2.14695301       5.04261042       1.08396732       0.61249939       1.76369505
H        4.88389907       7.15530821       9.49880645      -0.21522588      -0.59242570       0.22152199
H        3.03093437       0.25924851       8.20767626      -1.92735581       0.21259844      -1.16438939
S        1.57271658       5.63319839       0.81883622      -1.81960609      -2.78841213      -0.87741389
S        4.95742926       2.13567616       9.52849746      -2.54844804       2.42354567       1.72515641
S        5.11013303       6.01451054       6.04450969      -1.46042859       0.63692548       2.92297501
S        1.66928723       1.78994809       4.36225468      -0.92696299       1.39327203       0.10898819
N        1.97882065       3.75751509       8.24862093      -2.07363805       0.02769018      -0.19350060
N        4.30090485       4.33198485       2.57836134       4.54203354       1.96956575       0.39337080
N        5.16029057       7.79419200       2.93595462      -6.27724986      -2.81993388      -7.65447334
N        2.31564921       7.66554095       7.71656826      -0.80878772       2.54188035       1.06816824
N        1.71241351       1.25305321       1.12947495      -1.35101386      -1.57998356       0.38888899
N        4.99979005       6.12706575       9.67741543      -4.46736487       1.39244585      -4.89585845
N        4.63849708       2.36211586       5.89196868      -1.32944647      -4.44430543      -3.39909363
N        1.82574589       5.67473955       4.54801596       2.41360394       3.15799456      -0.16039334
O        2.70970703       6.41007036       1.23620391       2.07963490       0.94390702       0.50772321
O        6.27539635       1.87914850       9.05241247       1.15095558      -1.45466006      -1.97317775
O        5.95984751       5.26458066       6.99928580       0.06689549       0.30274188      -0.73377106
O        2.61429871       2.97032168       4.04773973      -1.18286864      -1.98023959       0.28542990
O        0.45343053       5.97841369       1.74660082      -0.19186326      -0.51589779      -0.04648306
O        3.78942602       1.13616745       9.22534324       2.12060676       1.05547589      -0.50626639
O        3.63203976       5.69221991       6.51560787       2.58586511       0.60949924      -1.75498325
O        0.33104941       2.00405361       3.69256826       1.00912104       0.08997627       0.70708938
O        1.30776152       5.94334418       9.90210734       0.52096022       0.64473073       0.22087520
O        4.89429434       2.09241646       0.53634754      -0.35059762       0.28115277       1.01143965
O        5.33498742       5.61004398       4.67271234      -0.29549470      -1.31983745      -1.18093844
O        1.44901214       1.81315788       5.86700345       0.94572267      -0.74002800      -2.33341684
O        1.86909961       4.16002875       0.79872184      -0.22920492       1.72254895       0.72118842
O        4.55754648       3.56726684       9.06814364       0.19949539      -3.14110597       0.47669290
O        5.41512002       7.46177980       6.07389613      -0.75480834      -0.29483913       0.56712001
O        2.24560673       0.53806682       3.71924526      -0.20770562       1.09702969       1.62773469
60
Lattice="6.32013645 0.0 0.0 0.67231836 9.70073554 0.0 -0.12857852 0.41855525 10.35037888" Properties=species:S:1:pos:R:3:forces:R:3 energy=-358.22755741 stress="0.04308726857188203 -0.004722024982627933 -0.0025036599884955706 -0.004722024982627933 0.02784580443304894 0.005660006332804929 -0.0025036599884955706 0.005660006332804929 0.02109951497302488" free_energy=-358.22755741 pbc="T T T"
H        0.68775145       4.28259024       8.66784168      -0.19874301       0.06970070       1.44174606
H        5.59765905       5.68240325       2.48951939      -0.21143728      -0.64952537       0.87335863
H        5.39625895       1.75695611       3.99269271      -1.22141629      -2.13035193      -1.70652213
H        2.83883871       8.71114326       6.59014492      -1.45533108      -0.40654024       0.94934384
H        1.74292962       5.55361280       8.72932210       0.23050440      -1.30341427      -0.81052455
H        6.31669233       5.61883230       0.86473793      -1.21451849      -0.21808356       1.98846052
H        3.85907546       1.05067135       3.55756009       0.70898761      -0.12762406       0.34127631
H        1.01762696       8.38256403       6.71779180       1.97182929       0.00369808       1.06496208
H        1.63392002       4.15440478       7.55271991       1.19970159       1.40858172      -0.73276429
H        4.61537831       5.41919763       1.03672707       1.95321821      -0.26445448       2.20656894
H        4.89296945       1.42750075       2.38349322       0.69794387       0.07384639      -2.03563890
H        1.99989030       9.06074350       8.04287142      -0.07010943       0.74709120       1.54056992
H        2.38196098       3.85293373       9.12612861      -1.32286544       1.20501116      -0.10432935
H        5.64254360       4.20287472       1.40459827       0.20949187      -1.74678850       1.40097523
H        1.35293472       0.29009592       1.51485961      -0.56289439       1.44910281       0.34679382
H        5.94108411       9.72302152       3.56259731      -0.87968956       1.49236579      -1.13212921
H        2.18560256       1.62758381       0.83745847      -2.10539977       0.11101095       1.25045819
H        4.30079481       8.31234100       9.54617939       1.89399922      -0.26859249      -1.05063797
H        5.60147774       3.14024965       6.23144726       0.16347989      -0.82881641       0.13392795
H        2.93457358       6.70170143       4.09690146      -1.50347423      -1.26080482      -0.28663191
H        1.67463860       1.77903377       2.41517987      -0.07111828       0.38870644       1.08455563
H        5.18644831       9.48578567       8.72731868       0.40435926      -1.28759522       0.24223217
H        3.81640864       3.21121203       6.26145611       2.27903325       0.81524354      -0.90901357
H        1.17936609       6.84617397       4.00362529       1.37643379      -0.63746141      -0.33459717
H        0.44329381       1.79347578       1.26235457       0.41901732      -0.23767810      -0.15119339
H        6.24447959       8.22543808       9.34491006      -2.43166081      -0.14681390      -0.00193705
H        5.09745256       4.70236123       5.95052204      -1.68475286      -2.00293119       0.87788322
H        1.84390502       5.34313053       4.51111193       0.55346975       0.51068000      -0.58216868
H        2.04293513       5.96101546       2.71121892       0.50023960       0.47045549       3.77505295
H        4.71332822       3.87967862       7.49911292       0.93950770       0.13539850      -0.61686606
H        5.15142202       7.95667093       8.09995179      -0.28475268      -1.40695129      -2.37257731
H        1.71199031       9.74442500       6.44520556      -0.60230679       3.91405577      -0.71156716
S        2.10557977       7.27545107       0.53240972      -0.39962289       1.83720447      -0.03883870
S        4.56781268       2.92233173      10.02138608      -1.09694510      -0.50346220      -3.08641342
S        5.37734003       7.34891813       5.24440988      -2.86637307      -0.21052057      -0.85250481
S        1.72812400       2.83596754       4.95511927       0.46659473       0.32538478       0.97964611
N        1.67612498       4.52366400       8.52163968      -0.22040277      -1.15787808       0.42661436
N        5.54475435       5.16272297       1.62824191      -0.89915664       3.04432142      -5.71265121
N        4.85964860       1.01676516       3.28052112       0.81397302       0.12216425       5.35693948
N        1.88968012       9.03120741       7.06057492       0.33329668      -4.38298505      -3.26082343
N        1.34817549       1.37807451       1.55379267       2.86530454      -2.43937232      -3.01402843
N        5.24701640       8.43244538       8.93814213      -0.12989793       3.36477645       3.00096783
N        4.81593507       3.73759388       6.46837251      -1.47000621       1.95700804       0.21206430
N        2.02245908       6.18001606       3.86269443      -0.56449913       1.16786594      -2.47770373
O        3.03484353       6.32328495       1.22255901      -0.98376779       0.92825507      -1.38020682
O        5.34765490       2.33274335       0.99558473      -0.70201168       0.11927774      -0.59351891
O        6.32402775       7.12676706       6.34963865       0.08268325       0.12252915       0.65135749
O        2.93681801       2.09176195       5.55138711      -2.01837826       1.20880852      -0.89558385
O        1.66789907       8.36108539       1.44527091       0.87886164      -0.85812898      -0.34278559
O        4.99266074       4.20618869       9.40155716       0.12679014      -0.28255296       0.52266082
O        4.81567661       6.05011110       4.71894060       0.76208388       0.75720238       0.99200502
O        1.59902177       4.21042923       5.60935740       0.57000423      -1.51154311      -0.40562488
O        2.54631860       8.32979587       9.60165452       0.32761157      -1.31040037       1.81626900
O        4.90124837       1.82425629       8.99582252      -0.97833779       1.55820620       2.80441363
O        6.10360694       7.94924317       4.10118548       0.08487334       0.98411696       0.10936617
O        0.47229488       2.12284524       5.28369878      -0.04542263      -0.74014900      -0.02597023
O        0.83807242       6.59623424       0.09954777       0.80099219      -0.67252364      -0.60951373
O        3.04311398       3.07908740      10.29518031       2.10331452      -0.81968955      -0.71352527
O        4.20504559       8.21859634       5.70543335       1.90012835      -0.91273116      -0.58093409
O        1.83661001       2.96648039       3.48751307       0.57756357       0.43429432       1.13925615
60
Lattice="6.71258078 0.0 0.0 0.37349916 9.40483214 0.0 -0.2624063 0.33479531 10.36931506" Properties=species:S:1:pos:R:3:forces:R:3 energy=-357.03413223 stress="0.004241182752128199 -0.009192375228048267 0.00142617572890251 -0.009192375228048267 0.010033219734521794 -0.012179537509576423 0.00142617572890251 -0.012179537509576423 0.026926541094114062" free_energy=-357.03413223 pbc="T T T"
H        1.83834152       3.60480393       9.20933639      -0.61957376       0.15448962      -0.21811877
H        5.28180337       5.32037710       2.86357646      -1.44354496       0.93637695       0.44973920
H        5.76806658       1.02294779       3.88140510       2.62674556       1.35908129       1.77050960
H        2.61859154       8.85897963       6.61603778      -0.02587079      -0.94846575       1.01977672
H        0.43802895       4.50916070       9.00140829      -0.04260024      -0.29205808      -0.55192091
H        5.83796957       5.96587487       1.50918983       2.21437663       0.72575200       0.01167261
H        4.15910967       1.01598175       3.76060901      -0.32208527       0.15913504       0.05656638
H        1.12147266       8.31466923       6.69006546      -2.32814799      -1.28798779      -0.14016286
H        1.45410494       3.96262221       7.67932777      -0.56817507       0.18742666      -1.23061651
H        4.42750705       5.62260696       1.16314017      -0.04785950      -2.17735462       2.71141011
H        5.15651880       0.95811977       2.29147232      -0.38182746      -0.79967438       3.07117170
H        1.77546290       9.19193067       8.05579115      -0.43144646      -0.73860186      -0.01746119
H        2.05261915       5.11018798       8.89417423      -1.18559618      -0.10238181      -0.80595284
H        5.76216867       4.35244441       1.76286019      -0.96884794       0.05664363      -1.56536633
H        1.77477942       0.81929792       1.37191482       0.77954319       2.52072626      -1.37405767
H        5.45459388       8.91701774       3.55249903       0.30241544       2.33554208      -0.19659476
H        2.49581278       2.26606807       0.50645881       1.15645955       0.05283047      -0.03279341
H        3.89214433       7.54586603       9.32273501      -0.86850867      -1.48556332      -1.18363117
H        5.64759676       2.79406929       5.70631029       0.47154789       0.26615675      -0.53572003
H        3.14855337       6.84542243       4.35175153      -1.64711184      -1.08056346       1.80686984
H        1.92784023       2.28947992       2.15475891       0.46134502       0.42248973      -0.64386396
H        4.86957748       8.66068368       9.10322885       1.66236862      -0.98532251       1.02574672
H        4.05045369       2.86834313       5.76033878      -4.42217297      -2.56451019      -1.19025498
H        1.50408445       7.02925303       4.31060380      -1.57549956       1.06327328      -0.61404574
H        0.82730313       2.15948183       1.01205324      -0.37902988       0.42617745      -0.73974049
H        5.44500544       6.92742050       9.59632565       0.02732491       2.21313886      -0.66489451
H        4.74306478       4.22162279       5.97970828       0.50341967       3.13391740      -1.14262756
H        1.93435178       5.52993842       4.76145478       0.72299607      -0.28414589      -0.02089970
H        2.52924392       6.19122332       3.22559269      -1.89755574      -0.75464276      -1.29803964
H        5.07835233       3.21530665       7.20295677      -1.14138092      -0.33858002      -1.80779679
H        5.21631987       7.53294076       7.98574549      -0.86447310      -0.84486322       0.63285824
H        1.30047081       0.47440957       6.59825233      -2.30820271       4.29285105      -2.22841105
S        2.01026986       6.82533253       0.19167306      -1.99283481       0.38849308       3.32120744
S        4.92121904       2.85407480      10.02742080      -0.59520716       0.05120790       1.26116436
S        5.39743390       7.20796805       5.45541227      -1.55385695       0.29345902       0.51922579
S        1.34683014       2.70217741       5.02163624      -1.73103156      -0.87912146      -1.25113060
N        1.36961406       4.31897226       8.61989558       2.40987777       0.01835419       2.81536162
N        5.22958150       5.25443328       1.85094317       0.27497068       0.18241421      -1.08523795
N        5.03427858       0.65756075       3.38120323      -1.91068235      -2.76328710      -4.50274177
N        1.66401944       9.04574818       7.04631178       5.16635071      -1.71384678       1.72717129
N        1.83624789       1.91703708       1.18668795      -1.63382074      -3.60822056       3.08149311
N        4.85622251       7.60578208       9.00048459       0.77500912       1.65658218      -0.00822736
N        4.82833713       3.26844924       6.08474881       4.79730052      -0.74154014       5.31372627
N        2.19458686       6.33761227       4.18786118       3.67359508       0.86478609       0.20821316
O        2.44743916       6.54226372       9.44352384       0.54620681      -0.18808405      -0.74392155
O        6.11379193       2.70684192       0.84595786      -0.02433964      -0.00913821      -0.67688914
O        6.23699883       7.22468102       6.73201504      -0.77576272       0.71804601      -1.95472495
O        2.68868494       2.09611966       4.85137831      -0.17960814       0.05337315      -0.63153578
O        2.65635633       6.31582981       1.50952787      -0.52063817       0.73482203      -2.22651995
O        5.55412163       3.44181679       8.79130150      -0.79180505      -0.59848039       0.89081081
O        4.87964648       5.82651575       5.29546590       0.09630874       1.09972748      -0.32105313
O        1.42079243       3.75564003       6.04485930       0.21845688       0.60319669      -0.48057467
O        2.15612156       8.30113513       0.10659988      -0.09529648      -0.83064847      -0.12258527
O        4.61160446       1.42129125       9.90905984       0.21520042       0.40190400      -0.53114962
O        6.16093654       7.58783054       4.22543668       0.46276926      -0.08784087       0.58131047
O        0.41159422       1.61437747       5.52983108       0.46554150       0.79107846      -0.43286346
O        0.53435900       6.40816816       0.18232947       2.12750353       0.34869535       0.06805416
O        3.96077765       3.27475766       0.07729028       0.16338471      -0.26163680      -1.20410531
O        4.22695184       8.21849687       5.49723016       1.48757485      -1.58632762       0.52152486
O        0.72848195       3.21885040       3.73459188       1.46580164      -0.55926027       1.51064692
60
Lattice="6.12589659 0.0 0.0 -0.32025651 7.97116664 0.0 0.30022041 1.08411911 10.93901073" Properties=species:S:1:pos:R:3:forces:R:3 energy=-357.17444827 stress="0.023733763766327454 0.003040123577366833 0.004514721146279255 0.003040123577366833 0.042597703233194006 0.0014353684919280031 0.004514721146279255 0.0014353684919280031 0.03508139793722298" free_energy=-357.17444827 pbc="T T T"
H        1.48799635       5.42446188       9.53160231       0.76263643      -0.55846769      -0.00303221
H        5.03982758       4.94758631       2.13326833      -0.26773745      -1.34964321       1.79987624
H        5.08650910       8.18048846       2.91941434      -1.30106556       0.51218459       0.04348929
H        2.70975579       8.21719834       7.27816698       0.75368934      -1.38784659       0.00603422
H        0.86940338       4.13336821       8.82349608       0.17403832      -0.50799079      -0.45013646
H        5.30294498       3.43765021       3.22970387      -0.48629237       1.66812747      -1.24066056
H        4.30979416       0.97659632       1.59575707       1.57863496      -0.73615096       1.05871398
H        1.86355415       1.32536998       7.24451060      -0.22797360      -1.79757373       0.64998001
H        2.56777140       4.48243678       8.53516203      -0.87630526       0.46917589       0.12867291
H        4.66601868       3.41981766       1.58525048      -0.81041871       0.99276794       2.40760021
H        3.64042056       7.35911645       2.22900710       1.52428054       2.80566425       1.24066931
H        1.00291058       7.65391291       7.49981945       0.82397190       0.32864979      -0.21213044
H        1.27955965       5.53463439       8.02481211      -0.15986566      -0.01888268      -1.62232157
H        3.76300270       4.11839315       3.00423084      -0.61178583       0.02597152      -0.06488563
H        2.21007862       1.38484717       0.86149752      -1.27623078       0.46591291      -0.22734875
H        3.75126484       0.94364876       3.03180393      -0.09344333       0.02585179       2.27302905
H        1.15668337       1.92044896       1.97912717      -0.53842035       1.72501114       3.26507107
H        4.35522272       8.39264666       9.39329460      -0.25647915      -2.02246589       1.08049130
H        4.70967510       4.21126022       6.49529895      -0.20655046      -0.97683080       0.00237046
H        2.99548100       6.47359533       4.39147559      -1.25202166       0.90570345       1.40645936
H        0.88217690       0.24286173       1.30925880       0.69962973       2.82488845       0.24458544
H        5.36323178       7.65122593      10.67465816      -3.06733353      -0.54006157      -1.53945781
H        4.04982651       2.92152128       5.56756681       0.81398563       0.71419368       2.39497277
H        1.56925259       7.55617733       4.07962573       0.62633927       1.66861406       1.26363199
H        0.50289902       1.71610349       0.44251427       1.37910523      -0.08696668       0.46240793
H        3.65791314       7.18206336      10.41764249      -3.52035686      -0.77133331       2.27007616