60
Lattice="6.18303168 0.0 0.0 0.47515193 7.88137845 0.0 0.37832112 -0.22326917 10.88138455" Properties=species:S:1:pos:R:3:forces:R:3 energy=-357.69112835 stress="0.02887805188849751 0.00018438498987239746 0.003842369524107838 0.00018438498987239746 0.03413216310864296 -0.0011661015182378076 0.003842369524107838 -0.0011661015182378076 0.01799714145473068" free_energy=-357.69112835 pbc="T T T"
H        1.55027058       4.78293596       9.18550989       0.01599243      -0.10748450       1.64013273
H        4.21880184       4.33410273       2.87551838       1.78759705      -0.76514028      -0.19430513
H        4.37951765       0.19959829       3.73900053       1.16486720       0.05196865      -0.85674845
H        1.69720108       0.92263408       7.36049702      -0.27390526       0.41313346      -2.63151414
H        1.23362244       3.07497629       9.12830122      -0.81680321      -0.94508285       0.80210303
H        5.54917560       3.24761924       3.30951479      -0.11616746       0.65689999      -0.54667322
H        4.79792663       1.00868178       2.16715298      -0.04261365      -2.03455193       0.64491036
H        1.49875289       0.22020994       8.54744040       0.08826439      -1.18580023       3.15647443
H        2.62771884       3.74508389       8.53608470       0.53045867      -0.19885507      -0.14190391
H        5.86948396       4.72786414       2.42978629      -0.89989298      -0.87232484       0.77725711
H        5.93665316       7.21579190       2.54947478      -1.05935781       1.40222846       0.48978259
H        1.59557758       6.98745583       7.21987406       0.58064498       2.96761089       0.77477745
H        1.16346012       4.17525329       7.81048340       0.50084353      -1.02451919       0.36915722
H        5.06358728       3.42960077       1.62969267       0.17392329       0.17678825       1.98485829
H        1.86447736       2.48334770       1.10479067       1.19128124      -0.67147399      -0.13803688
H        4.25357672       7.48926863       2.44034885       0.71815892       0.13385273      -0.64940729
H        1.86361721       1.24451891       2.25590024       1.45552851      -0.04431131      -1.93438140
H        5.07911802       7.01668077       9.33512740       0.26522006      -2.69282601       0.26199675
H        4.67392539       2.39271845       7.19709148       0.76587313       0.93263973      -1.15707002
H        3.20146838       5.27242583       4.44785690      -1.00717939       0.44776344      -0.15995815
H        2.72520111       0.97454567       0.54424866      -0.28761941       0.80589208       1.03135841
H        6.17861878       5.83906836      10.37358178      -2.37535203       0.12408521      -2.21809811
H        3.88325629       2.79277573       5.70854311       1.33080358      -0.38112922       0.23435110
H        2.76226022       6.92415910       4.69119187      -1.50808113      -2.12305189      -2.01947007
H        1.17335863       1.15780245       0.90574055      -5.26412806      -2.13058653      -2.38258871
H        4.15892179       5.73842515      10.14032146       3.32749593       0.48865326      -1.03686985
H        4.69049191       1.34344797       6.03034961       0.11514417      -0.66117643      -0.64608711
H        1.81193711       5.70247687       5.23496719      -0.93823659      -0.72593022      -0.02140185
H        1.75546531       5.73319145       3.42858651       1.40069216       1.09664540       2.36868670
H        5.60094753       2.67445449       5.72744886       1.42179536       0.73505432      -0.05350231
H        5.20084190       5.15446329       8.78388973      -0.27137006       2.37773932       1.43148224
H        3.23637803       7.40709202       7.32276647      -1.27521670       1.70227167       1.56577761
S        1.78727097       5.56266732       0.91534881       1.78449090       1.95706696      -2.26481123
S        5.29821561       1.77667805      10.17198803      -2.88429442      -1.49921638       2.39873511
S        5.29303203       5.90652583       6.13565573      -0.54409735      -0.86181988       2.85738783
S        1.67471111       1.94030523       4.61887386       3.70092017       1.97351867      -1.57871256
N        1.64145816       3.88036924       8.70903506      -0.09120849       2.06541239      -2.87928663
N        5.17702729       3.94668536       2.62184774      -0.99008617       0.71750914      -2.25100740
N        4.67358662       0.05142541       2.73632937      -0.91271429       0.14766795       0.04507150
N        1.78812698      -0.03346634       7.64914544       0.81676685      -4.73608788      -2.91804066
N        2.00763241       1.43356196       1.18835024       2.88936436       1.80127813       3.13258621
N        5.14911639       5.91607559       9.58644027      -0.38608211       0.20632051       1.59901324
N        4.77059972       2.35282091       6.14842590      -3.85829441      -0.83664209       1.60711875
N        2.35074568       5.88224613       4.39336772       1.72449999       1.54299364      -0.29397932
O        3.15430448       6.23268256       0.88459889      -2.02992173      -1.48248433       0.87413897
O        6.54953054       1.33659319       9.59248433       1.33471583       0.57401416      -0.28301372
O        0.57693482       5.71089792       6.43396279      -0.01160488       0.83977345       0.66118330
O        2.64232200       3.10533981       4.21970887      -1.92283568      -2.12088629       0.36351419
O        1.00453674       6.10191883       2.03993022      -0.36513026      -0.65027665       1.14346920
O        4.22759257       0.79542309       9.83703181       0.13169411      -0.56761555       0.30355893
O        4.57666139       4.93174045       7.08821931       0.45337356       1.89834669      -1.45961541
O        0.44493089       1.93793381       3.78826600       0.17166682       0.29490290       0.88987488
O        1.45341017       5.86822545      10.56513419      -0.04796983      -0.32465198       0.15954072
O        5.03790953       1.98982972       0.86931153       0.38521833       0.48795751      -2.48530742
O        5.04685680       5.49725254       4.77626547       0.02994489       0.13362456      -1.04156078
O        1.50554443       2.05553994       6.05160432      -1.48396765       0.73077276       1.01193412
O        1.84151128       4.10602790       0.86089586      -0.08372042       0.77489083       0.41295086
O        4.78970558       3.04887718       9.71501318       0.97582177       1.18120547      -0.22608624
O        4.86350862       7.35363778       6.36909614       0.42029088      -1.95550580      -0.03902614
O        2.40059643       0.67774577       4.35461182       0.09449841      -0.24105125      -0.48471969
60
Lattice="6.0744916 0.0 0.0 -0.23412066 7.87130232 0.0 0.14490138 0.61603574 10.85520142" Properties=species:S:1:pos:R:3:forces:R:3 energy=-358.45385364 stress="0.04078001138062793 -0.0003272432784209555 -0.0008305337955409516 -0.0003272432784209555 0.023609987687320023 0.0049915642796028 -0.0008305337955409516 0.0049915642796028 0.035294468659619084" free_energy=-358.45385364 pbc="T T T"
H        2.54660723       4.11141631       8.98263554       0.03328141      -0.82342712      -0.32226982
H        5.07761557       4.49681019       2.27240453      -0.32991743       0.16571991       1.35147951
H        5.58357019       0.79662057       3.16547649       0.43104330       0.18391476      -0.46510138
H        2.16843496       6.84277079       7.41482802       1.91671005      -1.41396622      -1.26574374
H        0.87504566       3.64679373       9.22766435       0.53245569      -0.38439284      -0.55588295
H        3.42020799       4.06385273       3.31086173       2.91131940       0.22512441      -2.34113857
H        3.95738824       0.57912850       2.51719019       1.25482341       0.57148404       0.58333041
H        1.96227860       8.05130765       8.54217467      -1.05256154      -0.81483803      -2.40577305
H        1.31661457       4.31652554       7.75122757       0.03195317       0.06380106      -0.75995426
H        3.93741226       3.60662518       1.76848426      -1.22347863      -3.09816265      -2.97441143
H        4.30040731       7.70337182       3.78614489      -0.23799835      -3.76899434       2.64054285
H        1.94735183       0.69879017       6.84508550      -0.05343471      -2.21403482       0.99301891
H        1.37128144       5.16297270       9.17341125      -0.18593821       0.92090051      -0.05965201
H        3.58774072       5.26014301       2.00395170       0.42490849      -1.26496432      -0.13863045
H        2.09439722       0.93690517       0.61526012      -0.47824748       2.00856566      -0.28229393
H        4.24753943       1.49316382       3.96587055       0.13947683      -1.40059621      -1.04388912
H        0.95531729       0.62231390       1.58022098      -0.63063823       1.36750076      -0.86950919
H        5.59110945       6.67320695       9.99312355      -2.07255406       1.19907051      -0.70076311
H        5.88503294       2.48407660       6.73490825      -0.07412802       0.89409901      -1.87927344
H        1.04674793       5.42052202       3.36492237       0.41091961       0.23682708       1.06419146
H        0.39244286       1.50678043       0.09295320       2.01773470      -0.47944135       1.15879752
H        3.89029036       6.87856052      10.59583115       1.45642893       1.04338339      -1.18628561
H        4.12682903       3.02310317       6.02263628       1.87976352      -0.29874725      -1.30421092
H        2.42556839       5.64891845       4.45516311      -1.46580909      -0.46476275      -0.57554347
H        1.17778409       2.37523431       1.50802521       0.85576593      -2.52803198      -1.91796730
H        4.31540138       7.65668269       9.03700924       0.65752342      -0.80957648       1.26385240
H        4.56025832       3.29710678       7.46423471       0.69448037      -2.22678547      -0.77368055
H        0.93591320       5.44900087       5.13490660      -0.73201325       0.65748041      -0.22305569
H        1.52593821       6.96793089       4.16512418      -1.69059453      -2.37595946       0.58689519
H        4.55618406       1.63388449       6.74302219      -0.56553871      -0.82095130       0.83964686
H        4.22763337       5.99697331       9.32871011      -0.08461407      -0.99276171      -1.06312644
H        0.64524660       7.34010249       7.53765973       1.23957615       0.85608044       0.02304588
S        1.33043761       6.05736286       0.75425478      -0.11469032      -1.75259863       3.74037164
S        4.44196962       2.55427878      10.09766033      -2.17498507      -1.87164660       1.27071458
S        4.62473231       6.30097354       6.16969257       0.45994042       0.88444284       5.72448089
S        1.53147134       2.17938158       4.55750215       0.67047777      -1.70666860      -0.23970694
N        1.54499248       4.27003755       8.72483004      -0.82312989      -0.00119241       1.39456253
N        4.05437194       4.35536132       2.33714180      -1.51785004       3.63945990       3.98955944
N        4.59814229       0.66810893       3.35491040      -1.57921046       4.37591033      -1.99696426
N        1.66251333       7.67299078       7.53709200      -2.24953085       4.19827400       2.22901078
N        1.19586653       1.42655124       0.90274330      -1.32426556      -0.15572157       1.97379929
N        4.53959484       6.86443659       9.71699360       0.23000317      -0.28346366       1.72655169
N        4.84942723       2.59873538       6.65584526      -2.25123003       2.58458652       2.87058603
N        1.38051738       5.81913530       4.27851273       3.39707664       2.39374802      -0.74967245
O        2.59188020       6.69951633       1.34591363      -0.95706596      -0.09369516      -1.64145079
O        5.85337441       2.23210336       9.61170542      -1.31939369       0.74618777       0.91766418
O        5.85639563       5.62756497       6.65743891       0.23856155      -0.57634355       0.02917050
O        2.98417320       2.66503720       4.39605122      -1.58658601       0.37079016      -0.55712737
O        0.12505368       6.60632795       1.51988951       1.27597028       0.53734523      -2.32799816
O        3.51132154       1.48561511       9.61302183       0.93616850       0.66366395      -0.12592590
O        3.43331676       5.65415062       6.81330126       0.38965726       0.04635283      -0.57494646
O        0.51098432       3.01963604       3.89784361       1.27690067      -0.38123690       0.89226157
O        1.46896027       6.72730624      10.09161464      -0.63316003       0.51671758       1.96104411
O        4.15648902       1.96126246       0.75924568       1.26431440       0.35468973      -2.15600368
O        4.57346831       6.23318613       4.77406429      -0.81141884      -0.23701161      -4.04764677
O        1.38602823       2.08580583       6.05599551      -0.24304362       0.16250557      -0.62263914
O        1.35838888       4.64016106       1.23610458       0.15881339       0.08341705      -1.18738089
O        3.97434068       3.84072962       9.52706340       1.31664652       0.41867530      -0.01186030
O        4.73379974       7.72227097       6.69278931      -0.53395533      -0.84815218      -0.65071988
O        1.41081347       0.76933574       3.94693159       0.49428709       1.71740645       0.77362122
60
Lattice="5.98122258 0.0 0.0 -0.93179741 9.65711814 0.0 -0.37025562 0.3206387 11.03022474" Properties=species:S:1:pos:R:3:forces:R:3 energy=-359.03157083 stress="0.02300568668989531 -0.007803057863718891 -0.005041246167958064 -0.007803057863718891 0.03598347551795708 0.0007493055162673362 -0.005041246167958064 0.0007493055162673362 0.02431207863372163" free_energy=-359.03157083 pbc="T T T"
H        1.40857655       6.03366294       8.60636716       0.73377040       2.66021222      -4.15907546
H        3.26894660       5.07995639       1.84357456       0.16029596       0.75157738       0.04139020
H        4.94513970       0.92977108       3.49574151       1.27503030       0.54203921      -0.74991745
H        0.78845523       9.43651744       7.52214945       0.74529918      -0.20933178       0.50499701
H        1.91640971       4.62929137       9.42543271      -1.35795051       2.16338050      -1.19301814
H        3.75753108       3.64867393       1.18618518       0.29360966       0.14989798       1.57301599
H        3.35039801       1.22248454       3.58313762       0.64457999      -1.14306308       0.14159632
H        0.39056273       0.59172308       8.03258821      -2.08549561      -0.59402280       1.14531956
H        0.32570135       4.75416728       9.35567470      -0.40959031       1.65462794      -0.66683517
H        3.25679623       3.82818639       2.93578774       0.26163565      -0.36791117      -0.86719142
H        2.92698586       9.52318092       2.55259983       0.44854556       0.72940183       2.46571217
H        1.75659546       1.42854477       8.14877122       0.74461380      -0.65300213      -0.46715825
H        1.37207278       5.89150036      10.20547035      -0.98977025       0.19201385      -0.55615966
H        4.78684986       4.43195699       2.46911702      -1.76255574      -0.24488182      -1.11192250
H        0.82679442       1.43624661       1.79229714       0.39771090       0.89000102      -1.56187414
H        3.19531025       9.55598320       4.39758669      -0.79364180      -0.30663743      -1.15329124
H        1.94935901       2.07146825       0.40299014      -1.19010614      -2.17716217       1.42075578
H        4.72608110       7.86461464      10.43499300      -0.06403986       0.12132875      -0.42198719
H        4.88976007       3.99549009       5.70691243      -1.44668489      -0.18140041       0.36528869
H        1.10054632       7.50318990       4.87900979      -0.07096639       0.65463187      -0.16665101
H        0.51099288       1.19035720       0.04353828      -0.16309765       0.04313216       0.53171778
H        3.10375523       7.76760864      10.98598869       1.63516550       0.40216259      -1.39008907
H        3.29950799       3.29975908       5.32793894       0.95546787       1.01487053       1.10143268
H       -0.49883726       7.24691610       5.56239905       1.13104199      -0.94628505      -1.76742604
H        1.71151826       0.39884151       0.92526224       0.89318361      -1.01823402      -0.25305432
H        3.68059397       9.30373466      10.53215031       0.57732403      -2.86986677      -1.56982598
H        3.30200393       4.88020226       6.23906727       1.59320284      -2.32644936       0.12742906
H        0.75222866       5.96977864       5.09137129      -1.51554296       1.62031252      -0.62596153
H        0.07376381       6.81640271       3.77480884      -0.36645754      -0.09055191      -0.71579906
H        3.96958664       3.24694383       6.89200551      -0.48331542       0.68311196       0.18897823
H        3.11267376       8.02266751       9.22166089       1.86331262       0.83636260       1.09827990
H        1.00904074       1.00311651       6.53395129       0.84788925      -0.64374067       1.64104641
S        1.21194491       7.04490988       1.14865782       0.33284347      -1.05945471       3.92315655
S        4.18482879       2.77426969       9.70846574      -4.05860749      -3.50545704       0.49129630
S        3.03637880       7.56933162       6.72858379       0.03974878       1.06415767       0.24184769
S        0.95122759       2.45428124       4.38952669       0.36475165      -0.56983804       0.43310449
N        1.13840207       5.45049850       9.28290323       2.37455345      -6.81191034       6.43016104
N        3.78257304       4.23083597       2.12539856       1.25256248      -0.48486515       0.12491790
N        4.08179336       0.43126148       3.47648009      -1.86494594      -0.12560300      -0.63752056
N        1.26904063       0.67902608       7.62153972      -0.03723192       1.91039409      -3.07611341
N        1.23944602       1.27720126       0.81172703       0.52452785       2.11480199      -0.14022738
N        3.77679815       8.22002110      10.22005407      -4.17488519       1.75885990       2.10246453
N        3.88674634       3.87127580       6.07034300      -0.71879179       1.13843386      -1.15536738
N        0.27852051       6.90000182       4.76810937       0.70674483      -1.27563405       3.22234399
O        2.52513728       6.31473206       0.98583935      -0.63772219       0.24340082      -0.76028020
O        4.97821979       1.50963982       9.91542684       0.33624662       1.41851757       0.79091589
O        4.53891462       7.51684709       6.75937235      -1.44937379       0.30006291       0.41433702
O        2.46285408       2.62040677       4.21196323      -1.16497629      -0.16735239      -0.83180968
O        1.50860604       8.36777666       1.76695078      -0.21255400      -0.11485125       0.04655959
O        3.34374507       2.46697820       8.55670313      -0.36476605       0.37670570      -1.38294213
O        2.50210055       6.17060909       6.60202994       0.06227336       1.10219876      -0.27232047
O        0.21028398       2.55031231       3.11878115       0.44667893      -0.34127774      -0.19190214
O        0.26109205       7.60326008      10.87422063      -0.32225611      -0.48800444      -0.60902994
O        3.12913358       2.98936482      10.82233831       1.63061234       0.25085769       0.10104885
O        2.57755204       8.50388041       5.63293745       0.31563187      -1.67752044       1.11609395
O        0.48795846       3.53896099       5.27083547       0.60581472      -0.66400432       0.17272403
O        0.38109864       6.16577717       2.13278584       0.99298510       1.93495916      -2.37383833
O        4.93186258       3.95992422       9.51842081       1.86299999       1.66691387       0.15725342
O        2.41903833       8.15125132       8.02556836       0.84654868      -1.04456240      -1.53298746
O        0.77106279       1.04300205       4.92253439      -0.19187745       1.71354696       0.24639168
60
Lattice="5.99888114 0.0 0.0 -0.46712072 7.62969848 0.0 -0.26515447 -0.58945497 10.73067266" Properties=species:S:1:pos:R:3:forces:R:3 energy=-359.25713523 stress="0.029300108040872495 -0.008675399771505641 -0.009161459722630851 -0.008675399771505641 0.02238615249053571 -0.007045812311481209 -0.009161459722630851 -0.007045812311481209 0.022733781211844783" free_energy=-359.25713523 pbc="T T T"
H        1.72405852       2.31138296       8.90194735      -0.10471379       0.41136257      -0.09694993
H        4.77112399       3.58548941       3.22659995       0.08240321       0.89634935       0.07204056
H        3.99808133       0.04110654       2.09734871       1.84820738      -0.39327426       1.97040275
H        1.01237657      -0.32263904       8.44346873      -0.99485797       0.69812072      -0.86951776
H        0.91190688       2.08230486       7.36040767       1.65496533       1.09362888       0.31990298
H        3.18703518       4.00200115       2.69656750      -0.52849233      -0.52554526       0.19768120
H        4.10094927       1.09629485       3.31159235       0.57205053      -2.01270351       0.68205922
H        1.00465071       5.80331193       8.72088774       0.22489068       0.82207773      -0.77260451
H        1.51269106       3.70898039       7.84550329       0.74550587      -1.16694931      -0.20451925
H        4.39323167       3.22997456       1.64719892      -0.96444791       0.88425407       1.22697271
H        3.86661414       6.86098188       3.64945520      -0.00281508       1.82730752      -0.11246430
H        0.58255128       5.99762068       7.16044459      -1.92526735       0.31728923      -0.83361838
H        0.16328364       3.02758288       8.46344807       2.21541940      -0.72479087       0.50914812
H        4.38834551       4.95603194       1.92184244       0.40184111      -2.96139909       2.25348705
H        1.06443419       1.13259676       0.15009614      -0.85462102       1.35588116       1.26603603
H        5.51141732       0.31801799       3.01049923       1.48423431      -0.01183738      -0.51575337
H        1.44836438       2.65978216       1.16615059      -1.41717715      -0.67130887      -0.29912474
H        4.47423037       5.52651748       8.74236304       1.02953471      -0.01579720      -0.39932723
H        3.27266611       2.20650853       6.10811177       0.16196102       0.33950679       0.33227236
H        0.14772997       5.08387594       4.81935863      -2.13939140      -0.36341813       1.54080217
H        2.48117385       1.52120109       0.70948525      -1.59183510      -0.30374665       1.29868713
H        3.32222435       4.64729971       9.50355264       0.72101595       1.12954046       0.60907297
H        4.79566340       1.93151875       5.51579592       0.10213461       0.58792025       1.26075016
H        0.96220615       6.39345817       4.16780743      -0.55259213       4.63664927      -0.69380498
H        1.30865035       1.02407995       2.00047874       0.48072812       1.48167685      -2.02513021
H        4.45987474       5.49780830      10.45490736       1.99624893      -0.55047691       1.86517681
H        4.02699681       0.74097893       6.41265824       0.24346079       0.68147232       0.14527786
H        0.96748682       4.96233651       3.42939722      -0.20573462      -0.41419154      -1.31456264
H        1.72934907       5.21970386       4.74923819       1.17919392      -0.67857702       0.96211736
H        4.51557913       2.06182445       7.33922650      -0.52521572       0.12977337      -1.75504625
H        3.41599368       6.42308346       9.63285810       0.11916474      -1.51196867      -0.24236588
H        2.00453510       6.70241468       7.60687802      -2.47916245       0.14027250       1.19111501
S        1.12388684       5.59070393       0.93854283      -0.85643435      -0.71496242       0.63257193
S        4.25154311       1.18139925       9.91067715       0.68190154      -1.41162970       0.82897366
S        3.74610701       5.56957230       6.14961834       3.33882756      -1.31166832       1.92837570
S        1.35258207       1.87723452       4.41671729      -4.44147029      -1.22632995       1.54128046
N        1.18726423       2.77235833       8.16164522      -4.29300737       0.25531850      -0.70006332
N        4.16553280       3.93768676       2.47205489       1.44348362       1.94874831      -4.12922320
N        4.53728759       0.14163022       3.06918699      -4.01077175       0.81702615      -2.00577337
N        0.93558895       6.53083072       7.92840761       4.87549957      -1.63328801       1.61169103
N        1.43609643       1.61296395       1.02166466       3.31330874      -1.42079290       0.03272666
N        3.96933585       5.47532607       9.60455402      -4.05232407       0.77662845      -2.05533576
N        4.17822712       1.79986088       6.35766795       0.22094370      -1.01423463       0.08025234
N        0.87938759       5.46589768       4.30295478       1.46557465      -3.23750254      -0.67721465
O        2.01954613       6.61173317       1.47657082       0.45486285      -0.20377903      -0.54473788
O        5.62471966       0.57571091       9.46801061      -3.08070681       0.82861468       0.81928218
O        5.11112936       4.91994170       6.47554149      -2.18282495       0.22417222      -0.00353731
O        2.49525313       2.71410519       4.27566861       1.64741207       0.62553216      -0.06460254
O       -0.29331086       6.10125094       1.09363442       0.64470876      -0.42542587       0.04456041
O        3.04203379       0.30513386       9.58357352       2.06686456       0.57804377      -0.22888188
O        2.59278082       4.76454734       6.68391709       1.25688377       0.90597994      -1.01761558
O        0.09280661       2.68279552       4.02246293       1.67095754      -1.61095832       1.36299039
O        1.10795327       4.63549691      10.25025047       0.04306471       0.52460900       0.23156204
O        4.44387367       1.93996640       0.67884113       0.63213499      -0.34277111      -1.25642665
O        3.74663628       5.66639781       4.67388998      -1.06712643       0.33854092       0.45514507
O        1.22831382       1.26421572       5.83849375       0.10234137       1.51326076      -1.88189350
O        1.27335574       4.33942571       1.77833740      -0.08840490       0.75300775      -0.57882851
O        4.08424894       2.47446900       9.25499217       0.19838114       0.59187927      -0.68875140
O        3.80719361       6.88686457       6.89477610      -1.18334863      -1.18093326      -1.03168336
O        1.39454585       0.67335468       3.53785427       0.22263185      -0.07418418      -0.27305598
60
Lattice="5.85685608 0.0 0.0 0.35000803 7.6372888 0.0 -0.22984152 -0.31131765 10.85038123" Properties=species:S:1:pos:R:3:forces:R:3 energy=-358.46486025 stress="-0.007795383572482598 -0.0008921243023046365 -0.00358001743723859 -0.0008921243023046365 0.007373231513078387 -0.006322558236395906 -0.00358001743723859 -0.006322558236395906 0.015632402473513864" free_energy=-358.46486025 pbc="T T T"
H        2.35510391       3.42572539       9.12711392       1.10489327      -1.24647292       0.21263274
H        3.93262668       3.84815954       2.93335391      -0.02063135       1.66024382      -0.90387036
H        4.66570524       6.55852040       3.22479699       0.40199628       2.53839286      -1.16004781
H        0.97628105       6.73213607       7.59873052       0.50554767       0.36713417      -1.26773258
H        0.82071907       2.73078125       8.88909464      -1.33088623      -2.15981769       0.90568222
H        5.24363690       3.20487509       2.98673822       2.69842747      -2.27746557       0.86968051
H        3.30298076       0.24488483       3.58106579       1.17105172      -0.71045301      -0.95888054
H        1.33344394       0.64595550       7.02626625      -0.24586089      -0.85630526       0.17329091
H        1.49567207       3.61414558       7.72129371       0.09006344       0.24512097      -1.16538531
H        5.31243643       4.46879301       1.88833351       0.27192796       1.83887409       1.31461206
H        4.85387564       0.78440586       3.33824956       0.82670634      -2.17820515       1.00662491
H        1.40705783      -0.00949581       8.58120465       0.48344104       0.64924428       0.42307195
H        1.13645082       4.32659212       9.20122951      -0.69737949       0.05823477      -0.00902412
H        4.49286039       3.31056050       1.50056638      -0.56742797      -2.21409036      -0.98546509
H        2.28915415       1.94868113       1.76411227      -1.28833908       0.32545179      -1.42866173
H        4.11385366       0.49003927       2.13880111      -0.26147846      -1.60107531      -1.88918850
H        2.06273421       0.39774009       1.51593324      -0.51047691      -0.55427414      -0.75098276
H        4.06681460       5.43716962       8.65630709      -1.30892850      -1.54980333      -1.16365674
H        3.64877356       2.64767511       5.49294148      -0.57899727       0.84109920      -0.15398200
H        0.98272899       5.13596719       5.45384962       1.47224840      -0.72690262      -0.75787411
H        2.25600363       1.28148008       0.07590775      -0.32845602       0.47208208       1.88485532
H        3.62233773       5.82295056      10.27496566      -0.32113878      -1.07684323       1.14057288
H        5.11379966       2.04858086       5.95675860       3.21224671       1.82465548      -0.74283273
H        2.06442293       6.26177905       4.76373955      -1.71510719      -1.78107927      -1.52329799
H        0.78555847       1.34984726       0.99080810       0.19599995       0.62620616       0.44315128
H        5.17462869       5.84533722       9.61007480       3.73015504      -0.34193817       1.97919956