60
Lattice="5.69597286 0.0 0.0 -0.5565367 9.28015922 0.0 0.67437027 0.11321191 11.28725852" Properties=species:S:1:pos:R:3:forces:R:3 energy=-358.11772655 stress="0.023626537822714434 -0.00039150062599640204 -0.005539861869640884 -0.00039150062599640204 0.039490007636241754 0.0021827477536489094 -0.005539861869640884 0.0021827477536489094 0.007096572539126643" free_energy=-358.11772655 pbc="T T T"
H        2.26070863       5.40999544       8.32718750      -0.52475005      -1.72885047       1.58573328
H        4.96537714       4.94289144       2.03213466      -0.52038953      -0.22677695       0.32982287
H        0.30202845       0.29543790       3.60035927      -2.07623458      -0.56959845       1.57752043
H        1.72027805       9.33856785       8.08068777       2.24906257      -2.52781840      -0.15150637
H        2.68340285       4.29402595       9.76917575      -0.19837615       0.86560311      -1.32039953
H        3.81465369       4.22335857       1.15483667      -0.75005112      -0.58240844       0.52388847
H        4.34686293       1.01064091       3.76292977       0.71255303      -1.17943346      -0.56916703
H        0.19933912       8.98352404       7.58058479      -0.81962219      -0.15313136      -0.00696479
H        1.07634554       4.63235909       9.77418741       0.47792888       0.15871940      -2.10387566
H        3.35066429       5.27929942       2.47664281       0.49383758      -0.58674209      -1.33365488
H        4.06981793       8.79546049       2.81113892       0.19145253       1.22269585       1.34366105
H        1.48760522       1.05267563       8.61397620      -2.54337535       0.19647934       0.31681390
H        2.08621976       5.84726104      10.00356437       0.13059690      -0.59068268      -0.70615672
H        3.94851649       3.80750473       2.92140798       0.06163034       0.01200489      -1.53251377
H        0.99354253       2.03915040       1.73748303       1.35331130      -0.72683464       0.49794700
H        3.82222226       8.78032382       4.49415167       1.80339876       0.74756620      -1.09488967
H        2.12507206       1.41200435       0.74366735       4.85925051       1.96530886      -2.76006093
H        5.47985868       7.49643536      10.37870126       1.77642764       0.50068415       1.26017371
H        5.56746895       3.16345601       6.19300801       1.62562768      -0.76969839      -1.34696893
H        2.06690423       6.75178515       4.87250803      -1.77667317      -0.57723102      -0.49002725
H        0.39038085       1.59050063       0.36588709       2.67701243      -2.53801252       0.43863290
H        4.01496414       7.71526311      11.25719446       1.21731597       0.67789253      -1.46671659
H        3.82748128       2.76940020       5.84429482       2.02153498       0.91266251       0.05637328
H        0.46606067       6.51869623       5.38672652       0.04666350      -0.46902645      -0.61072855
H        1.44782273       0.29504031       1.59055306      -2.10821948       1.37088965      -1.18180270
H        4.76482527       9.14281848      10.49118229       0.97724870      -0.97301170      -0.04026304
H        4.39604291       4.17589554       6.68461790      -0.39745233      -1.59799171       0.27408613
H        1.18808540       5.20002304       4.60256647      -0.11440080      -0.71374130      -0.29604987
H        0.65159741       6.51868361       3.76081250      -1.08070349       0.94039337      -2.91969300
H        4.55215358       2.55507157       7.32810067      -0.06028755       0.65405396       0.45832987
H        4.33821591       7.89941501       9.57267982      -3.06236884      -0.53436759      -4.10561157
H        1.76309075       1.04166029       7.02890445      -1.04557485      -0.27318943      -0.64527493
S        1.22194350       6.90161875       1.19558491      -1.50427714       1.85397781      -1.61469897
S        4.84223348       2.39613887      10.10674210      -0.58677996       0.59722843      -0.60650168
S        3.61797873       7.02691782       6.77064362       0.34525290       0.32910101       1.85799229
S        1.91795601       2.34383354       4.41048735      -0.85279831      -0.47942106       0.43963626
N        2.00872481       4.98837246       9.35218887       0.25961399       1.08441209       2.22240989
N        3.98885545       4.52094979       2.12217752       0.68823858       1.10132092       1.85010229
N        4.88105539       0.07437494       3.69246578      -1.13546705      -0.35083174      -0.86442732
N        1.41835982       0.43075633       7.78518328       2.37752858       2.44032823      -0.08600829
N        1.26746572       1.28186792       1.06575830      -7.05441415      -0.41074800       2.93816305
N        4.67490014       8.09663166      10.42863259      -0.92866811       0.31143076       4.57342756
N        4.62081139       3.14288764       6.48564960      -3.09005880       1.13521114       1.26462172
N        1.05246428       6.19397235       4.56515846       2.63405590       0.79150314       4.34796305
O        2.68414784       7.10903621       1.44636658      -0.65517936      -0.21114170      -0.11448566
O        6.13101449       1.48040455      10.01297546      -2.48671476       2.18722735       0.84568021
O        5.08207601       7.10634184       6.57207614      -0.31717628      -0.15498265      -0.08912623
O        3.43707953       2.57399902       4.21147786      -2.12706878      -0.27885348      -0.35904619
O        0.41597442       7.95547994       1.94351681       1.18808274      -1.44318352      -0.10623057
O        3.77718000       1.86295462       9.17379747       1.81209083       0.70673178       0.35387722
O        3.14808810       5.62642342       6.95246612       0.33212417       0.09109872      -0.40694117
O        1.04918733       3.10552166       3.48368209       1.06754979      -0.40143321      -0.14308144
O        1.58302102       7.21246820      11.01884853       0.98998936       0.03096757       0.66754440
O        3.59499894       2.23286719       0.19051538       1.25736206      -0.24547363      -0.17562512
O        2.89466104       7.64295644       5.64594055      -0.02574064       0.14830081      -1.87943154
O        1.57006752       2.85544011       5.79569482       1.05004798      -1.14239976      -0.82699364
O        0.79320551       5.54201937       1.51609576       0.27459957      -0.29773461       1.01272670
O        5.16666721       3.86754486       9.83005990      -0.11264344      -2.41927554       0.03074593
O        3.24745558       7.81117062       7.94793031       0.16997223       0.13455536       0.64060867
O        1.65354801       0.84797823       4.26757553       0.83410429       1.98567703       0.24644149
60
Lattice="6.74792681 0.0 0.0 -0.33254265 9.65820543 0.0 -0.95259292 -0.11837878 10.19047467" Properties=species:S:1:pos:R:3:forces:R:3 energy=-356.66366086 stress="0.034556690648971426 -0.00947308785620747 -0.0017756998092878426 -0.00947308785620747 0.008929472022164712 -0.001292045909998589 -0.0017756998092878426 -0.001292045909998589 0.03343321443752776" free_energy=-356.66366086 pbc="T T T"
H        1.39736391       3.34847026       9.10544826       0.02000362       0.88843309       0.26040466
H        4.33747724       5.36226993       3.26860300       2.91148878       1.55233644      -3.06942907
H        5.34151737       1.37031573       3.39332382       3.67371851       3.52701246       1.31122197
H        1.20189568       8.45981746       6.61829702       1.46401693       0.08618833      -0.02199383
H       -0.29834095       3.68053739       9.26818372       1.21203731      -0.37532487       0.06923419
H        5.65041726       6.28107132       1.83544705      -1.99404688      -0.96961199       1.54213449
H        3.66332962       1.10022300       3.44172450       1.06187539       0.23337471       0.16851685
H       -0.35979414       8.33138395       6.89316551       0.50020724       0.03629831       0.41749527
H        0.36334095       3.70419836       7.81388345       0.91329460       1.04892902       0.48928046
H        3.92227529       5.72966493       1.47183074       3.11515033      -0.19342273       2.18512551
H        4.72475254       0.46483740       2.23177530      -0.25330258       0.72742868       1.70411785
H        0.42410162       8.59021890       8.37350784       0.99015081       0.64734064      -1.56736552
H        0.58042669       4.95510527       9.08268641       1.33088862       0.53850970      -0.81344902
H        5.34047062       4.72951139       1.75732208      -0.33798758      -0.80010952       0.37969470
H        1.26538137       0.38416114       1.08341244       1.17411018      -1.45386059      -0.27273924
H        4.39003800       9.44924932       3.89190155       0.69508513       2.30647910      -1.36603095
H        2.05367478       1.87765897       1.02349408       2.02790938       0.94876419      -2.86510362
H        4.93569753       7.78037602       9.52727165      -1.30898837      -0.45398054      -0.73811277
H        5.30840591       2.95004698       5.79077759      -0.11704143       0.03480159       1.34459086
H        2.21918692       7.08706947       4.64274357      -1.22515028       0.00817337      -0.15794543
H        1.71077582       1.53337999       2.38754231      -1.80144780      -1.08487840       0.26834353
H        3.28708313       7.21543209       9.18040267      -0.38965609      -0.01961162       1.28635271
H        3.78082370       2.95093493       5.39093627      -0.06743072       1.00061619       1.64251166
H        0.44113596       7.14922194       4.59505511       1.65025919      -1.40323691      -0.61597439
H        0.39905610       1.70857279       1.11050759       1.33966821       0.37707702       1.11803706
H        3.73448081       8.99525798       9.58088465      -0.28417200      -1.82956548      -0.11114799
H        4.51276332       4.43638528       5.93818902      -0.60066529      -1.14093952       0.04088953
H        1.26185367       5.57963501       4.74204853      -0.18306507       0.74075967      -1.03615272
H        1.29277030       6.61330807       3.19132507       0.26473670      -0.74926189       2.28614827
H        4.15327828       3.20530804       7.03953496      -0.75880757      -1.50610899       3.22505258
H        3.95504983       8.13477108       8.04755053       0.96578069      -0.21503518       2.73349839
H        0.53111037       0.05674459       6.91211031      -0.04113492       3.36230240      -0.69668503
S        1.55868209       7.00032115       0.11972656      -1.78313298       0.97031049       0.27013156
S        4.06485458       2.11740276       9.86340568      -0.20754034      -2.83584243      -1.89077107
S        4.41390569       7.50718244       5.36923586      -3.57497183      -0.75264374      -4.08615127
S        1.00018295       2.41439687       4.78246894      -4.90838957       3.23564484      -1.32331561
N        0.61891149       3.98263008       8.79346708      -3.53137806      -3.26532999      -0.50635659
N        4.87971263       5.55154949       2.16084603      -3.42672048       0.61630264      -1.10180723
N        4.64263016       0.75922912       3.28590307      -4.65815651      -6.26711669      -2.01796029
N        0.50606968       8.85189749       7.21639350      -2.17594804      -3.68910201       2.28371200
N        1.36415145       1.31842970       1.40858468      -2.77768480       1.20602034       1.56731844
N        3.95568230       7.98379578       9.16989792       0.81384708       2.92719556      -2.39244465
N        4.40818093       3.38728657       6.13531723       1.63303603       1.29390446      -6.43448729
N        1.29847945       6.54271219       4.29483547      -1.38552755       0.81464213      -1.03806658
O        1.56200820       6.30149466       9.37337276       0.18397494      -0.33425365      -0.58962795
O        6.07519973       3.05598832       0.31128924      -0.65503495       1.08934288      -0.48137396
O        4.85461028       7.76743616       6.68565035       1.21176897       0.21594556       2.20064632
O        2.11704623       1.68194010       4.15214151       0.68721416      -0.11410239       0.74779097
O        2.16628811       6.95960452       1.45581274      -0.40102779       0.09462227       0.39558318
O        4.34400208       1.84171775       8.38407475      -0.34924451       1.25873009       2.43551283
O        4.33274315       6.02820071       5.08989437      -0.10853481       0.67932360       0.27999650
O        1.35720551       3.65347506       5.56230337       1.07608107      -1.24224782      -0.33491315
O        0.33702367       8.29255834       9.84737005       0.13676311       0.41628791       0.24965746
O        5.14526476       0.91124844       0.39069454      -0.23822309      -0.39316749      -0.09676897
O        5.25735268       8.10152693       4.30559457       0.07416063      -0.01825089       0.84064641
O        0.05951424       1.61283320       5.63928456       1.48887396      -0.41749131      -0.14309346
O        0.18432946       6.34971944       0.08568661       1.83321953      -0.01074175       0.34290416
O        2.64312144       2.56327521      10.03381701       1.18079065       0.59420396       0.25013974
O        2.97992354       8.12883784       5.23191208       2.72621420      -0.96439636       0.35505289
O        0.10413211       2.92214921       3.62504125       1.18808595      -0.97766691       1.07752471
60
Lattice="6.17242129 0.0 0.0 -0.38522674 8.34892412 0.0 0.07555734 0.44291464 10.7463912" Properties=species:S:1:pos:R:3:forces:R:3 energy=-360.11941266 stress="0.03572527937114685 0.009014351546827915 -0.011396688662753455 0.009014351546827915 0.033968404184318506 0.003866774573771137 -0.011396688662753455 0.003866774573771137 -0.0028223426564183206" free_energy=-360.11941266 pbc="T T T"
H        2.31660652       4.33534897       9.14459893      -0.64634000       0.36239379      -0.98942245
H        5.52236312       4.27941032       1.67030428      -1.93353982       0.77547701       0.55347169
H        5.43965734       0.35988809       3.80534376       2.91485648       1.16411283       0.73429818
H        2.34301178       8.26766462       7.05813807      -0.14397861      -0.01619640      -0.18888499
H        0.73964140       3.95119475       8.88037762      -1.26687164      -0.75327941      -0.32788492
H        3.72642915       4.66082916       1.60559542       0.52889436      -0.33238293       0.26580798
H        3.94120410       1.04438293       3.69495855      -0.87781875       0.48971447       1.17003491
H        0.62085018       7.78065495       7.32157973       1.24822619      -0.08700747      -0.95323310
H        1.50694514       5.18467583       7.85855250       0.06797285      -0.53114158      -1.13992265
H        4.71348936       5.17070109       2.84591079      -0.26066765      -0.17777594       0.59845165
H        4.59290228       0.59528779       2.34362436       0.86389597      -0.04403716      -1.26262558
H        1.46379018       8.39372327       8.57604068       0.58184973       0.26889049      -1.72241254
H        1.18473280       5.43524792       9.35909120      -0.92827491       1.29787111       1.28576567
H        4.33769872       3.48925390       2.75354513      -0.10524313       1.29643794      -0.32859545
H        1.42800140       2.30601187       1.87601729      -0.93912977      -0.25683456       0.94334534
H        3.96357939       7.75566399       3.48547764      -0.86604009      -0.39464101      -0.13814886
H        2.32623190       1.43979533       0.89097352      -0.75283367      -0.13575276      -0.61098708
H        5.30406705       7.30823107       9.68297583      -0.56969223      -0.52535223       0.40115167
H        5.49995249       2.95088133       6.28159030       2.15440056      -0.43800962      -0.87459037
H        2.45590936       6.29440256       4.16120546      -2.29240437      -2.32985577       1.58621304
H        0.62960468       1.68606029       0.57853294      -0.28425951       1.11060090      -1.81458538
H        3.65624932       6.97190294      10.20788707       0.34797151       0.14256410       1.25298536
H        3.83706224       2.85438487       5.87289065       0.98972245       0.52094601       0.14112114
H        0.89533194       6.25095526       5.11789864       0.36268822      -0.22997518       0.71543561
H        1.03597397       0.55533686       1.52741091       0.55959989      -0.21681511       1.38710555
H        4.09115295       8.53128023       9.43814026      -0.32029987      -1.71127467      -0.42568128
H        4.41360332       4.15053211       6.87825466      -0.00931121      -0.54893509      -0.72748380
H        1.17882356       4.70498770       4.21671465       0.80972974       2.65221629      -0.48613518
H        1.04031180       6.44243656       3.61409636      -2.16259820       0.86292972      -3.05277840
H        4.35581242       2.60873481       7.38920107       0.12417151      -0.82392553       0.81310376
H        3.98373146       6.83067240       8.66672421       0.86670234       1.16310934       0.67944392
H        1.38073538       1.01060569       7.27543784       0.70348773       0.52665727      -0.57873482
S        1.17773078       6.17664897       0.73171662      -3.09176952      -0.61560234       3.37546836
S        4.59300955       2.60058801      10.04093554       0.11772992       0.07939098      -2.42558774
S        4.43130418       6.59002564       6.10853515       1.88700173      -1.45445371       1.25303081
S        1.53222204       2.09156464       4.52041616      -3.38197272       1.42111654       2.00214402
N        1.38879268       4.70659592       8.73052586       2.98007913      -0.50930221       0.88692169
N        4.50896184       4.38286186       2.23636979       1.74027184      -1.11550780      -1.06198006
N        4.59602312       0.37541290       3.31790154      -1.80513720      -1.35683869      -0.73327199
N        1.42901604       8.45726721       7.50031263      -2.18099190      -0.63295780       3.15209860
N        1.34522293       1.50625562       1.24772823       1.60425381      -0.53579642      -0.10775875
N        4.28040696       7.40017189       9.52714047      -0.24766475       0.73271444      -2.12096422
N        4.58071192       3.14421461       6.56380548      -3.22359010       0.96076310       0.55640169
N        1.40484531       5.87349427       4.30153828       2.93178911      -1.77979378       0.92304270
O        2.63314889       6.07941715       0.83521307       0.12304065       0.39596003       0.70360034
O        6.06480985       2.72093568       9.61621731      -2.18496612      -0.21437172       1.44478669
O       -0.17576838       6.47901435       6.41082522      -3.55648200       0.18823493       0.17758255
O        2.98625697       2.30272080       4.23470497      -0.69927137      -0.69079208       0.25495194
O        0.44582479       7.07746490       1.80013455       2.04419743      -1.45357438      -1.84112487
O        4.00891448       1.57379487       9.07232021       0.22711666       0.76835158       0.66983020
O        3.62629578       5.66800026       7.05566888       1.55739540       1.69096235      -0.91112854
O        0.74654740       3.12719411       3.73164351       0.88077572      -0.55866141      -0.25506431
O        0.91638226       7.20825545      10.17553849      -0.11826512      -0.26773734      -0.94615908
O        4.31766173       1.67042391       0.65342045       0.72599155      -0.71878016       1.14930343
O        4.23098202       6.10853180       4.73336987       0.11303072       0.17379028      -0.53462878
O        1.18968880       2.48629445       5.97959887       1.33192345      -1.19420233      -1.66977859
O        0.62517688       4.74744283       0.94296402       0.93053431       2.00285036      -0.96274593
O        3.83469125       3.86051067       9.92483411       0.67844818      -0.11557328      -0.48431586
O        3.99005946       7.97310559       6.25788763      -0.08097171       0.08618453       0.23724780
O        0.97891226       0.72268911       4.20986673       1.93263677       1.63289748       0.36246925
60
Lattice="6.35216213 0.0 0.0 0.19637779 7.72315803 0.0 -0.47895029 0.63913285 10.74598721" Properties=species:S:1:pos:R:3:forces:R:3 energy=-358.0475752 stress="0.030864011862380563 -0.003567448410991069 0.003832477562264027 -0.003567448410991069 0.030793787195175133 -0.0003615592578742989 0.003832477562264027 -0.0003615592578742989 0.031094566537317434" free_energy=-358.0475752 pbc="T T T"
H        2.32321902       3.49177736       8.42320661      -0.35281147      -0.58843774      -0.55340369
H        3.59380981       4.51738494       2.18933779       0.10726250      -0.39115836      -0.35476597
H        3.68711411       1.10550832       3.33422805      -0.77369106      -0.42524970       0.45984351
H        0.66734748       0.82943791       7.43522205       1.71842835      -0.40110949       1.43347518
H        0.58760405       2.94218820       8.85747259       2.36317345       1.47656352       0.55732432
H        4.77825421       4.38431746       3.50502703      -0.88184095      -0.05351970      -3.21565826
H        4.84707293       0.75242748       2.29485812       1.26939123       0.79843475      -4.31196830
H        2.14365426       0.60774956       8.60937300      -0.43576859       0.33723484      -0.89979460
H        0.73007518       4.10293818       7.76273406       2.51639886      -0.40441921       1.31290274
H        5.34879959       4.87035734       1.94845853      -1.25719929       0.15880732       0.21532606
H        5.20687908       1.55870192       3.80074102       0.41408221       0.28965707      -1.31088367
H        1.18425204       7.10320755       8.33957532       0.24482056       1.78411667       0.25312123
H        1.43787791       4.50081649       9.21328920      -0.39682709       2.71254589       2.99373726
H        4.93489647       3.39330686       2.16442429      -0.45661977      -2.01468061      -0.69000550
H        1.51393900       2.14015892       1.53874617       0.84397078      -3.25693648      -2.60749327
H        5.15916739       7.66352757       3.62917768      -1.67973297       0.70950582       0.36186599
H        2.80777214       1.33838641       0.60783473      -0.95409424      -0.30501393      -0.41977436
H        4.61801336       4.85872755       9.65429119      -1.27040713       2.27243479       0.03466316
H        5.11465328       3.66230888       6.77538341      -0.00581006      -0.59670623       0.22271150
H        1.43572525       6.08638996       5.26721924      -0.23078437       0.60869415      -0.75877959
H        0.97058243       1.05563401       0.03061059       2.08237854       1.09563185       0.56547716
H        3.52683947       6.33974243      10.01287114      -0.48511027      -0.77486767      -0.21127473
H        5.26334942       2.72210082       5.33754302      -1.06748223       1.03329883       1.35663839
H        1.50717508       7.43361454       4.35627814       0.47857082       2.37059246      -0.13402537
H        1.62440583       0.21764165       1.28762653       1.22226335       2.36477501      -0.27577683
H        5.14407152       6.32097136      10.64682743      -0.84211831      -0.74260295      -2.00359177
H        3.66903083       3.32544806       6.09870300       1.34704046      -0.66944339      -0.48547430
H        0.15539848       6.44786855       4.34405877      -1.61344586      -0.53783484      -0.96966189
H        1.81789407       5.93668212       3.74324676      -1.90277329       0.72791527       0.15589161
H        4.48426227       1.91453279       6.69244502       0.67908298       2.40022513      -0.59158483
H        4.75285803       6.47471876       8.82915594      -0.65287478      -1.49651675       2.60031136
H        2.05030544       7.43251821       7.11617305       1.16585481       0.87952496       0.30552893
S        1.65383169       5.41363964       0.86931598      -0.08106472      -2.96007625      -3.05946508
S        4.52386620       2.05991002       9.85071817      -0.05673330       2.85456706       0.59426829
S        4.65946973       6.59191704       6.01474160      -1.86241108      -0.11886555       1.05950427
S        1.30827539       2.61072752       4.73475332       1.44430498       1.03299954       1.40529656
N        1.34809442       3.76096248       8.61606087      -4.06766455      -3.14849720      -3.88675652
N        4.56910672       4.27932203       2.38649076       2.58713943       2.20018654       3.98462469
N        4.66956348       0.88991421       3.21150082       0.22469635      -0.61419279       4.34340534
N        1.64004310       7.97114731       7.91217238      -2.56011971      -2.60576303      -1.26658934
N        1.79415764       1.20726905       0.82028258      -2.91912778       0.34889144       2.63733716
N        4.45312208       5.97255442       9.78350438       2.84502457       0.42797008      -1.35258498
N        4.64320842       2.91956667       6.24571531      -1.70885111      -1.43596827      -0.06291551
N        1.14708486       6.51850387       4.34439652       3.71077750      -3.67079159       1.67347367
O        2.47478919       6.28092505       1.71392715      -0.23207269      -0.18208067       0.40559420
O        5.89635323       1.59168161       9.54034644       0.49139007      -0.54597491       0.11575011
O        5.57604859       5.70276761       6.84484783      -0.81071849       1.00026705      -1.79630829
O        2.17426990       3.77612780       4.41848054      -0.24265451      -1.28260774      -0.11402090
O        0.17557988       5.76510471       0.99395052       1.44299712       0.21143122       1.02882031
O        3.49255243       1.14393736       9.45719754      -0.52315996      -1.54072574       0.14574101
O        3.21806196       6.25437070       6.32441623       1.66106964       0.15439552      -0.12406090
O       -0.07775977       2.93664105       4.28722024      -0.40726400      -0.51407661      -1.18832846
O        1.58353693       6.22473560      10.14506527      -0.79042090       0.19206116       2.00146704
O        4.91207218       1.77560517       0.55850324      -0.01785586      -0.70178856      -0.83643858
O        4.77803001       6.42535261       4.47431895       0.81586018      -0.90157750       2.26383154
O        1.21435775       2.50200330       6.24528525       0.38830457      -0.81493676      -1.95729653
O        1.85886665       3.92672551       1.15845707      -0.34180922       2.68798069       0.28800280
O        4.32652120       3.29437764       9.03593141       0.04350548       0.42772931       0.27114104
O        4.93434313       8.01757390       6.37412975       0.28925229      -1.46686376      -0.66655680
O        1.78978146       1.35018225       4.02612015      -0.51572147       1.60484602       1.05816242
60
Lattice="5.9105962 0.0 0.0 0.10173938 7.98188308 0.0 0.08356163 -0.57114046 10.91035924" Properties=species:S:1:pos:R:3:forces:R:3 energy=-358.71083981 stress="0.049117218094660645 -0.010210787242564662 -0.0058454685572203804 -0.010210787242564662 0.02025969511013851 -0.024993927666978978 -0.0058454685572203804 -0.024993927666978978 0.007395979810317802" free_energy=-358.71083981 pbc="T T T"
H        1.44781248       4.43457019       8.53757671       0.24697514      -1.83524033      -0.14986534
H        4.21070211       3.31826716       2.15437437      -0.06108027       0.05527098      -0.56546136
H        4.44457213       7.61087517       2.31554024      -0.48242363       0.33741774      -2.44941578
H        2.63222785       7.18741576       7.57571824      -1.36784764       0.79369639      -1.19273299
H        1.64921237       3.07733623       7.59637570      -1.14050893      -1.29931988      -3.57954643
H        3.83469753       5.07869385       2.02452681       2.26005012      -1.92847155       0.15158744
H        3.72308557       0.44299028       3.76516759       2.29920306       0.62856943      -1.54584430
H        0.88893941       6.91341959       7.16392932       0.62767635      -1.36855028      -0.92740921
H        0.67184924       3.03998853       9.14706113       1.18882674      -0.41031179      -1.87866915
H        5.52548240       4.26517425       1.96571997       0.96576406       0.37169374      -0.13027054
H        4.48101822       6.91200218       3.71979054       1.44739735       2.17870800      -0.62407975
H        1.28921746       7.37529228       8.53819871       0.39085941       1.78215179      -0.67377878
H        2.39527754       3.03436739       8.92832621      -1.25899507       0.97124821       0.42132332
H        4.57710345       4.20218337       3.41954683       0.80187931       0.40745990      -0.04983592
H        1.20732539       1.87638412       1.58028840       0.13895929       0.02834623       1.59997409
H        5.56987409       0.19306569       3.35814398      -0.93221025       0.14072684       0.28223046
H        2.28481260       0.97117258       0.62020330      -2.39214664       1.05719112       0.58237196
H        5.49036586       5.71597311      10.13042435      -1.60820050       1.03813383      -1.78343840
H        5.36944968       2.20240100       6.45167281      -1.65139178      -0.07872497       1.06097941
H        2.64272074       5.49951271       4.28166673      -2.18128507      -1.02735652      -0.82194481
H        0.54193301       1.58765430       0.10662705       1.51919952      -1.54846065       0.72811735
H        3.80928585       6.01605627      10.44122929       1.54847920      -0.72489276      -0.22153914
H        3.75354220       1.85810114       5.96988793       0.90437009      -0.17040884       1.00567922
H        1.38144573       5.66115312       5.21276115      -1.40410884      -0.16667333      -1.63670861
H        0.91082992       0.09666237       1.18662900       0.00763926       2.20118391       0.36838308
H        4.30195998       7.04909472       9.50912380       1.33844466       0.93014331      -0.94583333