60
Lattice="6.47746286 0.0 0.0 -0.59146858 7.97257032 0.0 0.80107714 0.58547566 10.8535423" Properties=species:S:1:pos:R:3:forces:R:3 energy=-357.81567101 stress="0.003908923210271825 0.013370974262065578 0.0073958610531236636 0.013370974262065578 0.04482420902143775 0.0014212823420572537 0.0073958610531236636 0.0014212823420572537 0.049747123672421525" free_energy=-357.81567101 pbc="T T T"
H        3.18781232       4.18254464       9.15104534      -0.14039508       0.81572054      -0.22036651
H        5.63660430       4.74530846       1.79382724       1.60205670       0.51741070      -1.27433626
H        5.98873055       0.89722662       3.58724963       1.06705265      -0.99549776      -0.63439018
H        2.68742743       7.82326178       7.46727715       0.25828488       0.09720785      -0.85260733
H        1.68635233       3.78662009       8.89130651      -1.82714776      -0.04805370       0.44405192
H        3.86759822       4.95335451       1.44745814       2.15558864      -1.05875693       1.70687859
H        4.43988382       1.11485429       3.45876106      -0.62255128      -0.28145276      -0.42138142
H        1.03031127       7.42069451       6.95389516       0.88922607       1.09931317       1.59262161
H        2.37225762       5.04748802       7.92847738       0.15772850      -1.48148604       0.95128014
H        4.67508591       4.73720739       3.02832292      -0.64238818      -0.24403018       0.31665253
H        5.09778222       0.28704469       2.10188213       0.63174956       0.92432826       0.89520453
H        1.56742707       7.99030283       8.66040152      -0.16818287      -0.74452772      -2.01181104
H        2.13127596       5.44591862       9.41551459      -1.31882659       1.00929532       2.12583680
H        4.71039528       3.28334998       1.89475313      -0.36307441       3.84792773       0.35056492
H        1.20944973       2.50172090       1.65603913      -1.80655007       3.10330543       1.19294317
H        4.30916156       7.40042778       3.62830479       1.47463290       2.63170511      -0.65281668
H        2.49486916       1.74255814       1.09796464       1.27154585      -0.02410305      -0.58336441
H        6.33590288       6.91645931       9.61901156       0.85690586      -0.39976597       1.18122648
H        6.10504469       3.07386784       6.50016261      -0.20757991      -1.44151938      -0.35762399
H        2.61714884       6.00630167       4.28240502      -0.51701587      -0.53161007       0.76655990
H        1.02013077       1.33347995       0.38948002      -0.64704342       1.40654809      -1.25970631
H        4.80182022       6.93998512      10.77863864       1.22180015      -0.08866686      -3.54569077
H        4.64679487       2.33515580       5.75789731       0.79429995       1.64994243       1.65063747
H        1.21498150       6.29992828       5.21470813      -0.18458798      -1.22947364      -2.15821999
H        1.30962628       0.79777584       1.78857521       0.67810736       2.15277436      -0.43274087
H        5.16838334       8.01293002       9.37255388      -0.78151159      -0.55423701       0.06690277
H        4.80992086       3.85812640       6.87189784      -0.98120457      -1.88975464      -0.47719871
H        1.51117644       4.64741650       4.22631771      -0.65421928       2.49669587       0.30536687
H        1.35038818       6.37869906       3.37104631      -0.65288291      -1.56838163       2.77608257
H        4.98641226       2.02229806       7.59288151       0.42671443       2.74013838      -1.95716170
H        4.98590940       6.30715903       8.92141955       0.01091598       1.42462749       1.76043055
H        2.06448763       1.15337371       7.35784164       0.56865116      -2.29023364      -0.94454383
S        1.22475758       5.92916467       0.84260390      -0.49958244      -0.61343421      -1.98762225
S        5.41252801       2.64528233      10.15893936      -0.14503668      -3.02369551      -1.41280227
S        4.77111651       6.36053912       6.05333367      -1.54319194       0.71211586       0.19376425
S        1.81901872       2.07796331       4.66514498       2.86451425      -1.68512752       2.11079882
N        2.25199331       4.61007104       8.89461630       3.03341724      -0.89366256      -3.46190811
N        4.71999880       4.47084765       2.04039790      -3.17361045      -3.30675176      -0.88017564
N        5.18161499       0.45724800       3.12821393      -2.52645250      -2.53115878       1.31813153
N        1.69075014       8.02724815       7.58144817      -1.58703551       1.67662089       1.80886391
N        1.49242757       1.72475579       1.18622065       0.71830237      -6.75552127       1.22989944
N        5.33371695       7.01525441       9.68543741      -2.18509635      -0.39828663       0.47082413
N        5.10538938       2.82025717       6.62888605      -0.25790328      -1.07461113       1.50421287
N        1.58085101       5.81482944       4.32289307       1.57326665       0.39990684      -2.08685691
O        2.67840671       6.27736832       1.08062198      -0.40449028      -0.88575519       0.30475129
O        6.86713804       2.61964769      10.04899222       0.46810478       0.35953154      -0.85807503
O        6.18943096       6.32756145       6.18201294       2.80341237      -0.05604840       0.47159371
O        3.30491478       2.27981200       4.24458639      -2.11525914      -0.62151451       0.80017937
O        0.35356398       6.76914244       1.66360687       0.23759629       0.55321125       0.56250075
O        4.79518039       1.61231451       9.17914147       0.92579995       0.17429203       0.85978636
O        4.22399306       5.41086879       7.06138278      -0.50703906      -0.33715443      -0.24855872
O        1.05904604       3.13980203       4.02199370      -0.98242034       0.64242423      -0.57914322
O        1.74264065       6.81144670      10.23768333       0.33673285       0.39641244       0.57797054
O        4.32447069       1.64855775       0.69622934      -0.80297896       0.24066115       0.63859741
O        4.39509816       5.98785588       4.64707004      -0.12867806      -0.05609659       0.07607630
O        1.69491851       2.24863336       6.21984893       0.13179843       0.05396252      -2.74583627
O        0.85182386       4.49933004       1.04567064       1.25789758       1.18069335       0.33261434
O        4.77496702       3.87309590       9.78660186      -0.17709074       2.12075535       0.28286240
O        4.24949142       7.68550746       6.36947727      -0.39499087       0.42081410      -0.15372228
O        1.33942019       0.70157440       4.23557350       0.52991496       2.26202719       0.57199246
60
Lattice="5.75629072 0.0 0.0 -0.19313353 7.78012815 0.0 -0.20046651 0.31028355 10.8689902" Properties=species:S:1:pos:R:3:forces:R:3 energy=-358.47663763 stress="0.01576927006173925 -0.007962976212715937 0.011481726746714492 -0.007962976212715937 0.016865926670748235 0.0012790085396307887 0.011481726746714492 0.0012790085396307887 0.024520099188804743" free_energy=-358.47663763 pbc="T T T"
H        2.27615362       4.05850333       8.59413338      -0.64836707      -0.54861900       0.12225564
H        3.50450484       4.12501301       2.86949395      -0.59221961      -0.56363675       0.11886760
H        4.71609482       1.02018358       3.45300667       1.17852094       0.25120603       0.43968851
H        1.02666680       6.68562544       7.68861683      -0.06979158       1.50334858       0.42485454
H        1.11117894       4.53029888       9.78790239       0.08508472      -1.35790927      -2.27496212
H        3.92859340       3.44609772       1.26422757       0.74123548       1.22500730       1.86940087
H        4.33444884       7.80140388       2.08541478      -0.78111423       0.39147378       1.45044497
H        1.15242715       0.47673831       6.94425436       0.44239543      -1.33180561       1.09574147
H        0.75556178       3.06971938       8.82928746       1.13223759       1.27002675       0.33202165
H        5.06128730       3.52849873       2.60643439      -1.66699972      -0.04005228      -0.38443341
H        3.99538344       7.23308948       3.65280784       0.05266112      -0.26665723       0.42151930
H        1.59592661       0.66851966       8.55974193       0.07647291      -3.28757536      -2.06868713
H        0.70283248       4.65108000       7.94723347       1.35032841      -1.72217173       2.72488311
H        4.65969731       4.90884414       2.05275792       0.23147899       1.97277459      -1.26246899
H        1.16607748       2.55049855       1.01109760       0.13693057      -0.99541865       0.65010031
H        3.29575510       0.69699362       3.07031420      -3.58951253       0.87751788      -0.20011305
H        1.03459245       0.90207615       1.83525682      -0.69986615       1.32470770      -1.64026148
H        3.54055556       5.83631651       9.50667553       0.46275266       1.50446181       0.41812267
H        4.58154193       2.66878777       5.48684114       0.85016405       0.40502998      -0.77351762
H        1.27221607       5.77375834       5.23208929      -1.46763981       1.26859770       4.67016791
H        2.24472432       1.19343109       0.79974628      -0.95417248       1.12784235      -0.09486724
H        3.72675895       6.19710480       0.09129343      -0.71658801       0.94445593       0.77520885
H        5.04023913       2.74957920       7.26837362      -3.25176624      -0.86660395      -3.28944887
H        1.16554766       6.21034119       3.76491006       1.81723911      -1.77114776       0.91663933
H        0.75838622       1.27188966       0.04861384      -0.66451714      -0.48140199       0.48874300
H        5.02467385       6.54522086      10.10387709      -2.57733212       1.28148948      -0.69145219
H        3.60401288       1.83371056       6.43844460       0.70973040      -0.19246256       0.71327953
H        1.20053773       4.51241126       4.25917445       1.15360748       1.23142136      -0.03529680
H        2.76345195       5.43313430       4.49813431      -2.40015695       0.34543456      -0.47336178
H        3.47370139       3.49074743       6.57517008       1.86746728      -0.93190505      -0.41182059
H        3.54568894       7.52297369       9.54133620      -0.53316017       1.72387057      -0.40400019
H        2.35554694       7.69231540       7.36909101       2.78743062      -0.46126922      -0.64912153
S        1.05946005       5.74794015       0.82925135      -2.32514619      -0.62376150       0.58610740
S        3.96782649       2.41732853       9.85690853       2.53492408      -1.79501519       0.71941400
S        4.21273439       6.03882085       6.29817669       1.83008722      -0.39759850       3.05657098
S        1.31381475       2.02555250       4.72873831       1.61331752      -2.03565678      -3.89097316
N        1.26760467       4.02327903       8.81316701      -2.65221558       2.42124624      -1.22947862
N        4.21951454       4.02907257       2.16605867       1.23477378      -3.06660547      -0.16755934
N        4.15080368       0.27384525       3.05316521       3.20231722      -1.10520399      -1.76538069
N        1.44505007       7.65834358       7.70394645      -3.90741960       3.82537208       1.11071873
N        1.22626323       1.48817382       0.95538793       2.19533753      -0.85204855       0.62360575
N        3.83638582       6.72421980      10.02975590       3.70104492      -5.17927730      -0.76864452
N        4.19564843       2.67065237       6.41444989       0.05516775       1.09889505       3.78681006
N        1.64229120       5.46450187       4.42979271       0.58954299      -0.60390511      -5.02220517
O        2.24693202       6.07234874       1.57754589       0.96178793       0.63989364       0.14921785
O        5.35153669       1.88025123       9.37536531      -1.69807374       0.67985074       0.49944286
O       -0.25898519       5.69860385       7.02391493       0.31981721       0.17446159      -1.19767803
O        2.36940654       2.81536014       3.96759249      -1.15696952      -0.76598033       1.06908588
O       -0.17890036       6.36742255       1.55044004       2.12821615      -1.07774072      -1.02115361
O        2.94650136       1.76006437       9.01540576       0.36599280       0.02174665       1.22423161
O        3.27359125       5.07713969       6.92908853      -1.22942840       0.73995270      -1.32233884
O       -0.00873882       2.30692705       4.12846496      -0.88514712       1.03477504      -0.59247581
O        0.90142357       6.56113678      10.28843146      -0.50017978       0.10574892       0.86740169
O        4.11000393       1.82000771       0.48122302      -0.76534441      -0.81137449      -1.24677462
O        4.41060401       5.89928875       4.83228772      -0.67930541      -0.77766600      -0.01409435
O        1.29387216       2.30881796       6.11577623       0.22876121       0.90261847       2.62059088
O        0.89550841       4.25216848       0.74501635      -0.00677408       1.14042196       0.22474448
O        3.90756171       3.84295024       9.76209126      -0.06879713       1.82138454      -0.80392849
O        3.83794432       7.41029242       6.62142383       0.23836917       0.15762428      -0.47381171
O        1.56189494       0.56920308       4.49651722       0.21280948       0.49781211       0.00042854
60
Lattice="6.28233916 0.0 0.0 0.20064612 7.84249675 0.0 0.16811571 -0.04264803 10.46637372" Properties=species:S:1:pos:R:3:forces:R:3 energy=-357.64397111 stress="0.012557272399814561 -0.0003202914418659829 -0.007696784836270156 -0.0003202914418659829 0.00535314915887206 -0.01915019796923503 -0.007696784836270156 -0.01915019796923503 0.003234481163139439" free_energy=-357.64397111 pbc="T T T"
H        1.30057716       4.54985738       8.39948931       1.55315444      -0.13971223      -0.30513134
H        4.18312822       5.37926012       2.59315692      -0.54902246      -1.56057486      -0.40235365
H        4.09765672       7.51397589       3.07578213       2.46981473       0.80151359       0.02489069
H        1.50369763       0.45943019       7.08651360       1.09650928      -0.07367141       1.68372636
H        1.64955815       3.09783977       8.95152678      -0.05070415      -0.61144917      -0.23674939
H        3.45450439       3.80076159       2.70388100      -0.58707474      -0.48453981       0.20206733
H        4.89087302       0.71736111       2.20358572       0.30738580      -0.96068832       0.26228008
H        1.77513579       7.25711265       8.51131613       0.21471725      -0.21779800      -0.89301625
H        2.97653925       3.81225321       8.33775194       1.39725876       1.18904220       1.22095485
H        5.06626421       4.25509693       3.41031078      -2.21942558      -0.20951387      -2.03684686
H        5.25179808       0.39002388       3.65888108       3.05070111       3.12465204       6.81970969
H        2.62734140       7.03962546       7.02377690       0.79837195      -2.15456637      -0.46479562
H        1.90207853       3.39640781       7.30946547      -1.04299094      -0.58594291      -0.44082493
H        4.79912538       4.11846215       1.66838288      -0.82526520      -0.20371239       1.04964781
H        1.83718465       2.03199089       1.68899996       1.33178320       3.31092502       0.27776130
H        5.70889083       6.99041663       2.57057687       0.57527577       0.31704740       0.11805582
H        1.91021716       0.61858850       1.89775106      -1.34662291      -1.29411101       0.53214541
H        4.10745777       5.75975266      10.01604721       0.42628077       0.09812727       0.71281018
H        4.78035190       2.98915231       6.58169214       2.07256952       3.00229038       2.84535847
H        2.79288860       5.87314702       5.09644766      -2.28024504      -0.29778829       0.25877324
H        2.43579946       0.91509409       0.51125399       0.18634793       1.12574626      -1.43521052
H        5.78531638       6.03981424      10.19631448       3.33392034      -1.09700098       2.21718365
H        3.86188708       2.70463007       5.35953671      -1.76484426       0.52276177      -0.43395286
H        1.73851281       6.39869093       3.79697934      -0.66240014       0.32707269       1.31688634
H        0.71510533       1.39599658       0.84407222       0.70651107      -0.89570798      -0.44781324
H        5.09076162       5.67373725       8.70235895       0.66969046       0.42600754       1.45554631
H        4.34047829       1.44967501       6.31845059       0.65596317       0.57281312      -0.50685269
H        0.97592066       5.57162377       5.14293511       0.80490183      -0.48476979      -0.86416723
H        2.14810721       4.98551752       3.93392911      -0.62335258      -2.99026335      -0.37398156
H        5.24402197       2.14695301       5.04261042       1.08396732       0.61249939       1.76369505
H        4.88389907       7.15530821       9.49880645      -0.21522588      -0.59242570       0.22152199
H        3.03093437       0.25924851       8.20767626      -1.92735581       0.21259844      -1.16438939
S        1.57271658       5.63319839       0.81883622      -1.81960609      -2.78841213      -0.87741389
S        4.95742926       2.13567616       9.52849746      -2.54844804       2.42354567       1.72515641
S        5.11013303       6.01451054       6.04450969      -1.46042859       0.63692548       2.92297501
S        1.66928723       1.78994809       4.36225468      -0.92696299       1.39327203       0.10898819
N        1.97882065       3.75751509       8.24862093      -2.07363805       0.02769018      -0.19350060
N        4.30090485       4.33198485       2.57836134       4.54203354       1.96956575       0.39337080
N        5.16029057       7.79419200       2.93595462      -6.27724986      -2.81993388      -7.65447334
N        2.31564921       7.66554095       7.71656826      -0.80878772       2.54188035       1.06816824
N        1.71241351       1.25305321       1.12947495      -1.35101386      -1.57998356       0.38888899
N        4.99979005       6.12706575       9.67741543      -4.46736487       1.39244585      -4.89585845
N        4.63849708       2.36211586       5.89196868      -1.32944647      -4.44430543      -3.39909363
N        1.82574589       5.67473955       4.54801596       2.41360394       3.15799456      -0.16039334
O        2.70970703       6.41007036       1.23620391       2.07963490       0.94390702       0.50772321
O        6.27539635       1.87914850       9.05241247       1.15095558      -1.45466006      -1.97317775
O        5.95984751       5.26458066       6.99928580       0.06689549       0.30274188      -0.73377106
O        2.61429871       2.97032168       4.04773973      -1.18286864      -1.98023959       0.28542990
O        0.45343053       5.97841369       1.74660082      -0.19186326      -0.51589779      -0.04648306
O        3.78942602       1.13616745       9.22534324       2.12060676       1.05547589      -0.50626639
O        3.63203976       5.69221991       6.51560787       2.58586511       0.60949924      -1.75498325
O        0.33104941       2.00405361       3.69256826       1.00912104       0.08997627       0.70708938
O        1.30776152       5.94334418       9.90210734       0.52096022       0.64473073       0.22087520
O        4.89429434       2.09241646       0.53634754      -0.35059762       0.28115277       1.01143965
O        5.33498742       5.61004398       4.67271234      -0.29549470      -1.31983745      -1.18093844
O        1.44901214       1.81315788       5.86700345       0.94572267      -0.74002800      -2.33341684
O        1.86909961       4.16002875       0.79872184      -0.22920492       1.72254895       0.72118842
O        4.55754648       3.56726684       9.06814364       0.19949539      -3.14110597       0.47669290
O        5.41512002       7.46177980       6.07389613      -0.75480834      -0.29483913       0.56712001
O        2.24560673       0.53806682       3.71924526      -0.20770562       1.09702969       1.62773469
60
Lattice="6.22965731 0.0 0.0 -0.22571356 7.7398011 0.0 0.53543811 0.61831403 10.26053228" Properties=species:S:1:pos:R:3:forces:R:3 energy=-356.27946896 stress="0.025103630703284825 0.0017427820589503889 -0.007185319689817809 0.0017427820589503889 0.03049462036564003 0.0015320900693047985 -0.007185319689817809 0.0015320900693047985 -0.00019599762343505044" free_energy=-356.27946896 pbc="T T T"
H        0.74751771       4.40946341       8.60319611       1.30350336       0.50942929      -0.01982769
H        5.43223259       4.20154880       2.00564492       3.45144936       4.03698326      -4.23716145
H        5.37703528       0.57970037       3.14463193       0.70209294       1.23609138       0.68872053
H        0.99711944       7.06759669       6.73667293       1.67101695       1.45472935      -0.28115621
H        2.29694846       5.21881721       8.52344079       0.91214100       1.76717449       0.68855330
H        4.48184518       2.98682379       1.72021035       0.28121049       0.94221556       1.72950831
H        4.20912492       7.80387745       1.98264819      -0.27548027      -0.59717442       0.14280829
H        2.02454825       0.96103393       6.75266058       0.42212319       0.25173217      -0.81902127
H        1.59059156       4.41792841       7.11568191       0.78176196       0.35067004       2.50132367
H        4.60569460       4.24896668       3.11376435      -2.01333899       0.83703416       2.72804809
H        4.53946333       6.86234454       3.46322453      -0.99183361       1.46499355      -1.25326330
H        1.90058230       7.59296223       7.99451425       0.72199044       0.19993017      -0.43671348
H        2.26523824       3.46579025       8.46389061      -1.35910928       3.35572582      -0.90043499
H        5.69052317       3.04451477       2.85245373       3.47527232      -2.82667811       2.77225284
H        1.74315247       2.07276152       1.29623346      -0.12524108       0.09981015       1.17144231
H        3.57131414       0.58085766       3.42063234       1.68507239      -0.85385056      -0.29396249
H        1.21094505       0.39029010       1.24169206       1.25506841       0.73440670      -1.02359467
H        5.27239013       6.36300770       8.51668587       0.80694574      -2.36735562      -3.50285070
H        5.30124965       2.26587136       5.39254351      -0.48004652       1.77581486       2.03152609
H        1.12826493       5.43793198       4.92050177       0.17774322       0.47915613      -1.01770171
H        2.58914724       2.06491866      10.19171899      -0.04158558      -1.62772499      -0.22286324
H        4.00026353       7.09148123       9.32996469       1.01740427      -0.66942405      -0.31766517
H        4.50890395       2.08670415       6.97180852       0.70529444       2.98517419      -0.49262248
H        2.36001326       6.42722430       4.05306303      -1.64129010      -0.28385120      -0.01410235
H        0.41140219       1.60216065       0.39287619       2.33337510      -0.70477032       0.32280640
H        5.45790482       6.68233511      10.01071048       0.64180320      -0.09211495       1.39376434
H        3.95965799       3.14185213       5.69992545      -1.45613429      -1.09218455       0.18426010
H        2.17013375       4.81334733       3.51670120      -1.36524909       0.42565953       0.69165626
H        2.73273051       5.20828989       4.91566700       0.57082392      -0.55826953       0.99857758
H        5.10108159       3.89912050       6.14743057       0.70148422      -2.39268386       2.06612613
H        5.35198935       8.07613184       9.07611512       0.27449641      -2.11017541      -0.63495813
H        2.69830254       7.14557410       6.57557426       0.51817004       0.57538375       0.02908164
S        1.29068383       5.67149643       0.83606634      -1.37248223       0.38695284       4.07491932
S        5.18102056       2.77520328       9.42499774       0.33179119       0.21493904       0.78188589
S        4.86136336       6.30707293       5.82155596       1.53519868      -2.11662396       1.24738317
S        1.60445599       2.20826949       4.40813019       3.93742697      -1.43328164      -2.43981016
N        1.74908031       4.47918830       8.19922726      -1.53837084      -6.31875140      -2.13815478
N        5.00833040       3.59068653       2.54643315      -5.36750702      -2.02034481      -3.78372947
N        4.29508270       7.83668147       2.99933007      -1.29076422      -0.99105299       0.40778155
N        1.95262761       7.71887832       6.95966107      -3.76833764      -2.13123225       1.97233973
N        1.41573298       1.29846574       0.72274297      -2.88055898       1.32904125       0.35945192
N        5.04769319       7.01621389       9.15492771      -2.64600561       5.27771402       3.40409735
N        4.77871952       2.85992644       6.22652480       0.97952948      -1.02140024      -3.88603783
N        1.98383688       5.49420748       4.31920964       1.17126580       0.50159764      -0.38888197
O        2.38848587       6.18391156       1.71087039      -0.99222494       0.09164107      -0.49512179
O        6.37962592       1.90591890       8.94906378      -1.88996571       2.13790958       0.97827370
O        6.28727918       5.91107949       6.36698123      -2.18949588      -0.51703586      -0.60124051
O        2.26230820       3.16032835       3.35947731      -1.36864923      -2.62193963       2.24777774
O       -0.11226732       6.20657927       1.23034976       1.75841143      -0.27687971       0.28010597
O        4.01901416       2.18987600       8.66130253      -0.01135264       0.88868264       1.32095376
O        3.77147078       5.73934926       6.73508090       1.93789810       0.76440258      -1.56074965
O        6.36911818       2.18860096       4.14835721       1.21504774      -0.40986017       1.06037444
O        2.03510969       6.80365517       9.78640006       1.05255483       0.84425185      -3.97908127
O        4.42245382       1.92280060       0.69154202       0.36682731      -0.17807100      -2.78283385
O        4.70091129       5.59336978       4.47329380       0.53197811       1.33740533       1.89631233
O        2.07263500       2.53841508       5.79323925      -1.77546844       0.88268618      -0.81036495
O        1.25245177       4.22697958       0.92751744      -0.09305192      -0.97256088      -0.69512727
O        5.35749685       4.29490838       9.24751095      -0.01176449      -3.51580471      -0.25934488
O        4.90084539       7.74495402       5.81942320      -0.94624418       0.28245560      -0.59872921
O        2.19503630       0.77456168       4.18742039      -1.33662023       2.27930268      -0.28500587
60
Lattice="5.92707156 0.0 0.0 -0.02777254 7.78372902 0.0 0.76705895 0.84044184 10.78561594" Properties=species:S:1:pos:R:3:forces:R:3 energy=-358.10025256 stress="0.005636005776623551 0.0035989660285523496 -0.012067481137220698 0.0035989660285523496 0.014704917675203665 0.00435214716622084 -0.012067481137220698 0.00435214716622084 0.010085782872010313" free_energy=-358.10025256 pbc="T T T"
H        2.78343902       3.66514510       8.94396911       0.19085327      -0.38953349       0.89279751
H        5.80564866       4.22069521       1.80388672      -2.29233141       0.76499785       1.69262131
H        4.35511020       0.52182806       2.33722852       0.40970988       0.23650170      -0.12472149
H        2.19893071       7.60957143       6.79151879      -0.08308960      -0.01538671       0.02945207
H        1.73479175       3.72852319       7.71286752      -0.15962928       1.45126576       1.52918104
H        4.47646502       4.10919469       3.09813830       0.17232256      -0.37969893       0.18804041
H        4.29183622       0.59808661       4.02665310       0.45348339      -0.60660508      -0.45935786
H        0.56332371       7.84263073       7.25742267       1.88168934       0.63265807       0.19680294
H        2.39999396       5.19684610       8.42045257      -1.12392012      -1.33381401       0.34417654
H        4.44198982       3.52784868       1.46619135      -1.19446742      -0.67910691       0.44271773
H        5.50107439       7.50435150       3.17925854       0.61865056      -3.20183565       0.27344038
H        1.94341193       7.67147738       8.43448088      -0.45988852       1.53139883      -0.80286199
H        1.17970387       4.23628958       9.38996479       0.97432222       0.11765140      -1.72196003
H        4.34007242       5.16724261       1.76436639       0.13491046      -0.63020165       0.47968652
H        1.00303269       1.40455264       0.21152836       0.33595217       0.68384292       0.41520209
H        5.64949633       1.19567027       3.28475211      -0.83292953       1.08726905      -0.07917919
H        0.83743025       0.92926747       1.70030393       2.15802658       1.14106984      -0.60664511
H        6.25892823       6.64582612       9.57533803       0.22668768       1.21297959       0.99389887
H        3.84991818       3.17938205       6.01466603      -2.78119937       0.96748051      -3.15387274
H        0.68656472       5.93562045       4.78250972       2.06604868      -0.57047424      -2.17131189
H        1.44908117       2.58071302       1.36848240      -0.17516302       0.66716789       0.16839422
H        5.15758261       7.66461557       8.94223046      -0.67626544       4.65968435      -2.87393757
H        4.46418458       2.13429392       6.86562082       0.24490069       0.50325306       1.06807307
H        2.12941607       4.80533742       4.01509610      -0.46622023       1.66126716      -0.09139436
H        2.43047141       1.32771051       0.92290898       0.49033514      -0.43399863       0.76293108
H        5.02631053       6.11072658       9.00756530      -1.58387738      -2.46644473      -1.92404162