60
Lattice="5.88353537 0.0 0.0 0.22385872 7.54689893 0.0 0.61903697 0.4227142 10.50579207" Properties=species:S:1:pos:R:3:forces:R:3 energy=-357.9006693 stress="-0.014281263559179257 0.005332175197846951 0.0019498329955907944 0.005332175197846951 0.005895009200224126 -0.008697676073341938 0.0019498329955907944 -0.008697676073341938 0.012114216178181796" free_energy=-357.9006693 pbc="T T T"
H        2.43394076       2.80667432       8.54470518      -0.55952185       1.61493358      -0.37370094
H        5.58890151       4.35899243       1.96946926       0.90759387      -0.00494593      -0.88846438
H        4.47261591       0.35967888       1.92500234      -0.64199051      -0.63215265       0.92881337
H        2.47541906       6.90909475       6.94909230       1.36018641      -1.21713572      -2.30074750
H        2.58504080       4.57279227       7.72518511      -1.73231748      -2.94836430       2.40652856
H        5.13369372       4.15395911       3.35220557      -1.47163202      -0.98397838       0.68291784
H        3.59580756       0.47555147       3.49025746       0.31082649       0.90423127      -0.21158853
H        2.20228454       7.24605378       8.38342446      -0.51083269       1.49164138      -0.67633288
H        2.12153743       4.16979695       9.48854280      -0.62838675      -0.13269940      -1.31495005
H        4.60824618       3.15459919       1.86622222      -0.36136410      -1.37779153       0.44052600
H        5.02331852       6.88911935       3.32455853      -0.29749820       0.63385758      -0.62239080
H        1.98672840       1.06056486       7.20012758      -0.33067110      -0.65494826      -0.36381148
H        0.98917030       3.73375549       8.19987451       0.28756374       0.16521585       0.52532890
H        4.12217313       4.74598522       2.04447546      -0.30450996      -0.56313437       0.98476768
H        1.11919158       1.23953329       0.14406572      -3.93136915      -0.10271081      -3.71969480
H        5.31594409       0.89737350       3.12703997      -0.73551191       0.13755186       0.98589762
H        1.37895014       1.57158538       1.93421087      -1.30347478      -0.27860168      -2.08502091
H        6.16953665       6.01358032       9.73389308       2.43674908       0.33613247      -0.09008158
H        4.67650558       3.07647865       5.49236159      -0.46126728      -0.22829211      -0.44908586
H        0.86774196       5.52165939       4.17436827      -3.86032664      -0.45105212       1.04896687
H        2.54255998       2.32131812       0.93230973      -2.92633069      -2.55238948      -1.46661461
H        5.16947076       6.96809632       8.72681636       0.14119821      -1.24096209       1.51825186
H        4.38277121       1.73427531       6.49277491      -0.54893335      -0.08700096      -0.15851798
H        2.29348269       5.04268774       3.45088879      -0.51459791       0.90653370       1.39239546
H        2.26613637       0.64393253       0.88130579      -0.67830910       0.82431913       0.39360210
H        4.89974047       5.30005873       9.14942477      -0.53779065      -0.22786796      -0.14767840
H        4.75979133       3.25791824       7.09921661      -0.04201749       0.62263553       1.25827140
H        2.37225496       5.95530079       4.97507856      -1.12704405      -2.48562735      -0.37460317
H        2.01418504       6.68906127       3.84747929      -1.00723582       0.80407049      -1.68667935
H        5.94443444       2.29587452       6.28043058      -1.14374218       0.96049331      -0.01113555
H        4.80219651       6.50954283      10.34618808      -0.69320747       0.17485168      -0.08251444
H        0.88545635       7.34526178       7.31952002       2.84850461       1.20138035      -0.43247949
S        1.72725139       5.65587654       0.89555269      -0.56406482       3.89024125      -3.78409284
S        4.95882293       2.16157791       9.59656998      -1.21766323       2.58312171       0.86400499
S        4.82236288       5.97789446       6.07824808       1.33906939      -4.17149907      -1.58646875
S        1.95431140       2.18909138       4.47164668      -1.84715494      -0.89584239       1.65109023
N        1.97120946       3.77828417       8.51423102       3.11391648       1.50027875      -1.54309679
N        4.75226515       3.99194603       2.41171740       1.29997015       3.15948668      -1.76630015
N        4.49390901       0.28239916       2.96813808       2.11201878      -0.56779315      -1.09279788
N        1.96754569       7.61826398       7.38196571      -3.34712000      -1.15563886       3.88399054
N        1.61743441       1.49236264       0.89009966       8.31076283       1.61590255       7.03538209
N        5.24029870       6.20779956       9.47056077      -1.52780546       1.36344122      -0.87981745
N        4.88370735       2.60224199       6.36151785       1.98086723      -1.11960501      -1.01448696
N        1.79116438       5.72741692       4.08758255       6.86884672       0.89715387       0.05451435
O        3.00180020       6.29865714       1.34099691       0.36695481      -0.90757189       0.04736830
O        6.14497237       1.40204573       9.27480194       0.59226660       0.03147718      -0.26146172
O        5.77956355       5.29554972       6.95702239       0.37501170       0.64401464      -0.29073054
O        3.02339112       3.06590901       4.03721473      -0.46997439       0.18900315       0.06985604
O        0.63745488       6.48281390       1.49552871       0.33843941      -2.29217105       0.49265548
O        3.74420597       1.46007400       9.15779956      -0.02920300      -0.09237593      -0.42362414
O        3.48303643       5.40985513       6.42136094      -0.74273733       1.03311244       0.05712467
O        0.65619962       2.33547571       3.77468329       0.51871489       0.61949159      -0.81498927
O        2.16696171       6.29667842       9.88791061       0.56395318      -0.22288921       1.11329257
O        4.24632976       1.93883388       0.59966777       0.32776142      -0.01151773      -0.66234919
O        5.10318165       5.56580723       4.62596710      -0.75169924       0.06792979       1.02926136
O        1.60054955       2.35144064       5.94149702       1.28670586       0.20843455      -0.83039498
O        1.77617715       4.21464238       1.02182843      -0.51383571      -0.71904262       1.62318353
O        4.96002119       3.56783146       8.97288323       0.28721775      -2.20965930       0.77161278
O        4.95291817       7.38875118       6.12854246      -0.40598905       2.33392525       0.81252307
O        2.37809003       0.77864662       4.26269624      -0.20796932      -0.37960147       0.33457571
60
Lattice="6.70607381 0.0 0.0 0.93778736 9.37469391 0.0 0.2305877 0.76481318 10.08439419" Properties=species:S:1:pos:R:3:forces:R:3 energy=-357.70311334 stress="0.02209674392971894 -0.01491820115192134 -0.00540797536146397 -0.01491820115192134 0.020809027255280242 -0.011475286782564442 -0.00540797536146397 -0.011475286782564442 -0.0016243598278824667" free_energy=-357.70311334 pbc="T T T"
H        1.23921108       4.52365405       8.93167795       0.32968583       0.07397092      -1.30847650
H        5.90791823       5.11007476       2.98699403      -0.10896489       1.37274543      -0.32148889
H        6.02604921       1.62167025       3.83170494      -1.85251320       0.02964935      -0.54745580
H        3.38131954       8.41382456       6.33373803      -0.22321521      -0.15933053      -1.47961150
H        2.00598552       5.92026084       8.78262173       0.71709222      -2.16367803      -0.52602000
H        6.66555403       5.46697085       1.34413468      -2.15448948       0.81170151       1.17897413
H        4.16750798       1.80166254       4.12404537       1.68935574      -0.27072971       0.71096106
H        1.69160341       8.14146337       6.36530803      -2.47169845      -2.58690463      -0.45630358
H        2.22035790       4.64330163       7.58925943       0.11902069      -1.07701759      -4.05633952
H        4.86177360       5.17079283       1.62409461      -0.64575827       0.77786902      -0.59431621
H        4.71166239       1.51445594       2.61714897       1.03275946       0.47416750      -0.77166366
H        2.62861284       8.80333086       7.60954610      -1.28301446       0.29110773      -0.23839098
H        2.84038124       4.29921283       9.17694766      -0.21389193       1.04825703      -1.45192226
H        6.11273535       4.08321366       1.74995339      -1.56620160       1.22258676      -0.01023324
H        2.32357488       9.22926180       1.25323325      -0.95430052       2.00331619      -0.25058620
H        4.95197551       0.35874201       3.70896889       0.11968053      -0.72489985       0.32968514
H        2.17526024       1.39212765       0.55881642       1.41056135       0.21231838      -0.64637214
H        5.09294792       8.44775255       9.18108256      -1.53539097      -0.06561398       0.12730848
H        6.25617846       3.56833346       6.02877395      -1.01104993       0.28852335       0.21507940
H        3.18097793       6.64198242       4.36166900       5.34618756       2.71220528       0.45497266
H        1.87724472       1.26231602       2.11669115       1.96063703       1.41013476       4.39882985
H        6.38062948       9.42721192       8.77739378      -0.38857872       1.75342046      -0.29486620
H        4.60593601       3.24959521       6.16640102      -0.88591609      -0.68850029      -0.51239054
H        1.78365096       6.93964662       3.88904662      -0.98571073      -0.15716789      -0.80778498
H        0.72311098       1.75245576       1.09906293      -0.51316614      -0.72652394       0.31856908
H        6.75705695       8.06677620       9.47711308      -2.05806645       0.05496661      -1.99022327
H        5.23249338       4.91450530       5.82243040       0.34846608      -1.94262204       1.23028478
H        2.30292206       5.65755998       4.74130711      -1.69388574      -2.46408104       0.85730957
H        2.62319867       5.60108833       3.07922902       0.29077120       0.70949559       0.91852921
H        5.48345259       3.96446806       7.40285535      -0.18709346       0.66792885       0.11123937
H        6.12773174       8.10910336       7.85093776      -0.07997835      -1.08594342      -1.76200982
H        2.16945594       9.67393658       6.03176982       1.20923176      -1.71698797       1.38786280
S        2.29865978       6.89510883       0.40640663       0.86254633       2.26971318      -1.52228226
S        5.37724733       3.34790697       9.77370822       0.13065007      -3.97586206      -2.79353219
S        5.99789026       7.37052229       5.00386409      -1.08662744       0.22453441      -0.19667351
S        2.13440649       2.82958044       4.90919957       3.07022594       3.14267179      -1.25413194
N        2.14618032       4.85702838       8.50687567      -1.00602698       1.33458479       6.96406463
N        5.80466538       5.13788386       1.95611512       4.50891667      -3.21477876      -0.26364876
N        5.01685923       1.35799746       3.56795265      -0.24887639       0.25494785       0.48178799
N        2.42697433       8.71915816       6.57488655       2.77382273       4.60231407       0.62281855
N        1.52641967       1.13216195       1.26408476      -2.47948727      -3.53863492      -3.62927016
N        5.98760326       8.50380294       8.74956750       3.96725018      -0.49714218       3.97427377
N        5.32465376       3.91677319       6.38210248       2.21218316       1.66411603      -1.49578987
N        2.48719645       6.19016066       3.92837666      -2.94762855      -0.76944872      -1.69869857
O        3.41740490       6.11964508       0.90703287      -0.51665263      -0.58016619       0.52954193
O        5.71051067       2.70496887       1.06344686       0.05285877      -0.38857488      -0.35225724
O        6.68429892       7.44782078       6.29491634      -0.09691490       0.19866664       1.32800902
O        3.43694236       2.18148854       5.44484860      -1.95655128       1.35400523      -0.05389955
O        1.79667488       7.90155102       1.40075029       0.54921421      -0.17183442      -0.32525169
O        5.79614187       4.47608957       8.89689667      -0.91733927       0.83288027       1.74708708
O        5.68984425       5.93890885       4.73829551       0.02569005      -0.07668923      -0.59343251
O        1.68800091       4.13148872       5.62905025       0.87999758      -2.71765162      -0.12995918
O        3.05334512       8.43809652       9.27657825      -1.01109235      -1.17448607       1.18718356
O        5.98900891       2.14617839       9.01822998      -1.09397355       1.25349419       2.06023075
O        6.96399240       7.91809264       4.01976891      -1.09097899      -0.02614048      -0.19907198
O        1.15048516       1.78036410       4.99178753      -1.98749146      -0.71313141      -0.19368024
O        1.11186598       6.03277904       0.02594957       0.59293226       0.77936062       0.26202153
O        3.86055285       3.09010794       9.88536818       2.04827301       1.50804600      -0.24622522
O        4.65198760       8.08423197       5.02108380       1.94821546      -0.42789299      -0.11073554
O        2.47816383       3.28763134       3.48841169      -0.94370021      -1.23126498       1.68837133
60
Lattice="5.92707156 0.0 0.0 -0.02777254 7.78372902 0.0 0.76705895 0.84044184 10.78561594" Properties=species:S:1:pos:R:3:forces:R:3 energy=-358.10025256 stress="0.005636005776623551 0.0035989660285523496 -0.012067481137220698 0.0035989660285523496 0.014704917675203665 0.00435214716622084 -0.012067481137220698 0.00435214716622084 0.010085782872010313" free_energy=-358.10025256 pbc="T T T"
H        2.78343902       3.66514510       8.94396911       0.19085327      -0.38953349       0.89279751
H        5.80564866       4.22069521       1.80388672      -2.29233141       0.76499785       1.69262131
H        4.35511020       0.52182806       2.33722852       0.40970988       0.23650170      -0.12472149
H        2.19893071       7.60957143       6.79151879      -0.08308960      -0.01538671       0.02945207
H        1.73479175       3.72852319       7.71286752      -0.15962928       1.45126576       1.52918104
H        4.47646502       4.10919469       3.09813830       0.17232256      -0.37969893       0.18804041
H        4.29183622       0.59808661       4.02665310       0.45348339      -0.60660508      -0.45935786
H        0.56332371       7.84263073       7.25742267       1.88168934       0.63265807       0.19680294
H        2.39999396       5.19684610       8.42045257      -1.12392012      -1.33381401       0.34417654
H        4.44198982       3.52784868       1.46619135      -1.19446742      -0.67910691       0.44271773
H        5.50107439       7.50435150       3.17925854       0.61865056      -3.20183565       0.27344038
H        1.94341193       7.67147738       8.43448088      -0.45988852       1.53139883      -0.80286199
H        1.17970387       4.23628958       9.38996479       0.97432222       0.11765140      -1.72196003
H        4.34007242       5.16724261       1.76436639       0.13491046      -0.63020165       0.47968652
H        1.00303269       1.40455264       0.21152836       0.33595217       0.68384292       0.41520209
H        5.64949633       1.19567027       3.28475211      -0.83292953       1.08726905      -0.07917919
H        0.83743025       0.92926747       1.70030393       2.15802658       1.14106984      -0.60664511
H        6.25892823       6.64582612       9.57533803       0.22668768       1.21297959       0.99389887
H        3.84991818       3.17938205       6.01466603      -2.78119937       0.96748051      -3.15387274
H        0.68656472       5.93562045       4.78250972       2.06604868      -0.57047424      -2.17131189
H        1.44908117       2.58071302       1.36848240      -0.17516302       0.66716789       0.16839422
H        5.15758261       7.66461557       8.94223046      -0.67626544       4.65968435      -2.87393757
H        4.46418458       2.13429392       6.86562082       0.24490069       0.50325306       1.06807307
H        2.12941607       4.80533742       4.01509610      -0.46622023       1.66126716      -0.09139436
H        2.43047141       1.32771051       0.92290898       0.49033514      -0.43399863       0.76293108
H        5.02631053       6.11072658       9.00756530      -1.58387738      -2.46644473      -1.92404162
H        4.56941398       3.88966087       7.27022907       0.71525294      -1.08882171      -0.19904280
H        2.39651145       6.09465741       5.07139424       0.20901292      -0.61521898       0.59513116
H        2.06789511       6.78212922       3.65929276      -1.38649388      -3.76790381       1.38622366
H        5.52495196       3.03103084       6.12098632       0.64953260       0.78475667      -0.68997981
H        4.69359791       6.92118759      10.31974927       0.30937637       0.69713210       0.68711876
H        1.74656510       1.35731976       7.22775866       0.00681461      -1.72594659       0.94863975
S        1.71432213       5.81260782       0.66763319      -3.07421347       1.71080314      -1.49328956
S        5.05762171       2.65230728      10.15761892      -2.62158990       1.51341167      -2.46565193
S        4.75451522       6.27431979       6.25065649      -0.34782179       3.87636513      -0.28734269
S        1.80369813       2.40286125       4.55221298       4.81194940      -0.56269186       2.93838036
N        1.98296336       4.23975013       8.63991537      -0.06053688       0.14738334      -1.30501392
N        4.71886011       4.25740624       2.12748572       3.19983110       1.08507530      -2.84471867
N        4.91622925       0.46765161       3.19420891      -1.21819905       2.28826503       0.47186249
N        1.62153202       8.08896382       7.49289218      -1.21767264       0.17423521      -0.48661687
N        1.47248152       1.59867229       1.13758577      -2.85014031      -2.45318951      -1.12814554
N        5.26729714       6.91652077       9.47036778       1.66034400      -3.87058744       3.74090925
N        4.62475821       3.11877198       6.56257888       1.42038931      -1.81903890       2.94162478
N        1.79801886       5.82438350       4.29284383      -0.37063387       3.23734989      -0.40692427
O        3.00524060       6.35889127       1.02642770       2.27765764      -0.66090799       0.90630471
O        6.02449954       1.65509269       9.77902557       1.48451269       0.17791826      -0.57215656
O        5.62131194       5.54103282       7.20970095      -0.51418094       0.65754200      -1.42251630
O        2.75950306       3.33561560       3.96354096       0.80765878       1.00145058      -1.35061028
O        0.72055091       6.47860030       1.56249438       0.11523932      -0.58410529      -0.48489604
O        3.71618650       2.27692106       9.47481501       1.95967066       0.64424244       1.60012778
O        3.29799891       6.05103713       6.60037858       2.01138923      -0.72689644      -0.84585249
O        0.56592206       2.51149348       3.88269188      -2.79575088      -0.07724043      -0.75550983
O        2.27162656       7.05467020      10.02714835      -0.35006095      -0.08239196      -0.17265057
O        4.22243565       1.82980795       0.85213226      -0.55769878       0.13556713       0.20820821
O        5.15555517       5.95868581       4.77124500      -1.28801678      -0.08071822       3.17466570
O        1.81695558       2.78047061       6.00220465      -1.89401595       0.50054136       0.83589860
O        1.51698611       4.35141019       0.64243702       0.39560764      -0.44197409       1.40578608
O        5.35114141       4.08984383       9.67678559       0.29669476      -2.07356609       0.94289444
O        4.92626574       7.86663528       6.40984906       0.41570720      -3.44377175      -0.06997662
O        2.43498875       1.07757846       4.58641126      -0.72852644      -1.16845616      -1.27101291
60
Lattice="6.6430734 0.0 0.0 0.05201274 9.5764671 0.0 -0.0369838 0.29854021 10.03254254" Properties=species:S:1:pos:R:3:forces:R:3 energy=-358.67588145 stress="0.029747988331150166 -0.0068280716981986315 0.0025413666428155137 -0.0068280716981986315 0.03246445345958702 -0.004059735447114571 0.0025413666428155137 -0.004059735447114571 0.02991129177510465" free_energy=-358.67588145 pbc="T T T"
H        2.25900961       3.82496621       8.68111301      -0.47103700       1.04811838      -0.62290239
H        5.16240224       5.46698678       2.96847273       0.05249336       0.42363191      -0.16382473
H        5.41041167       1.55342936       3.25696311      -0.65399014      -2.39082502      -1.42036481
H        2.41373570       8.83802608       6.44400742      -0.03586855      -0.98217992       0.50935295
H        0.59871828       4.10399854       8.72734056       1.75565137       1.50182187      -0.79362924
H        6.06160428       6.22949534       1.62932333      -1.74254822      -1.22587714       0.33685678
H        3.95149879       0.89372206       3.46040521      -0.18019387      -0.82854391      -1.49975251
H        0.83783393       8.33792104       6.34175544       0.72615648       0.35014590       1.58684149
H        1.43164748       4.29844032       7.26718516       0.23884135      -0.11448682      -0.70138145
H        4.28016280       6.07428861       1.59992588       0.52704610       0.12475704       0.81276405
H        4.99065534       0.39499574       1.96078008      -0.74664619       0.37817432       1.04259793
H        1.71270192       8.27377826       7.97829618      -0.54035311       1.58353021      -2.20901329
H        1.80244791       5.37440544       8.47351292       0.61425903       3.44855105       1.06990214
H        5.18392704       4.73756360       1.35287492       0.58322107       1.36991284       1.33141758
H        1.70020932       0.42818706       1.19710545       0.86866045       0.67830155      -0.78490817
H        5.34535606       9.53898038       3.71666374       0.03249973      -0.93371942      -0.93149246
H        2.68288563       1.95440784       0.82429817       0.21874338      -0.54911048      -1.27923423
H        3.80353643       7.95875193       9.03263043       0.49497774       0.30938839      -0.85553125
H        5.67153645       2.98796865       5.04131621      -1.12179055       0.44031168       0.01163091
H        2.61744629       6.61712331       4.59824361       1.10083859       0.22307524       0.22737669
H        2.16300366       1.73667733       2.29402412      -1.64685541      -0.70046522      -2.05062463
H        4.69333197       9.39585948       9.11432071       0.82542275       0.14745441      -0.21935869
H        4.21256278       2.36377492       5.45381633      -0.71595353       1.13242279      -0.15158456
H        1.08604623       6.82974780       4.28678624      -0.12247083      -0.40360746      -0.09072905
H        0.93285133       2.01466720       0.95121164       2.15824529      -0.95477409       0.90284122
H        5.23528575       7.81591724       9.67133579       0.16123803       1.62415697      -1.32053874
H        4.48442075       4.13787571       5.24663881      -0.20829511      -0.76479616       0.86637377
H        1.56412484       5.13765850       4.69929369       0.90170841       1.59224526      -1.55512593
H        1.98122816       6.16583680       3.14451686       0.30054902      -0.46531361      -1.20920564
H        5.20823319       3.11621898       6.54298417      -0.74312099       0.90425950       0.77811776
H        5.20747349       7.95168512       7.92700852      -0.94519860       1.36133112       1.32355243
H        1.26521958       0.28161669       6.81552049      -0.60563210      -0.83052442       1.47248701
S        1.75690462       7.13790751       0.29790702      -0.25754875      -0.47995739      -0.12448993
S        5.05976510       3.00145849       9.70696938      -0.91612078      -3.70824640      -1.51859118
S        5.19659807       7.32146207       5.21193725      -0.67105758       2.60935012       0.74980877
S        1.27765176       2.43336619       4.92333230       1.58181945       1.47311131      -1.11059256
N        1.53115240       4.48054654       8.26240244      -2.08434028      -5.99433790       1.22532983
N        5.17829181       5.65171265       1.95329811       0.48209650      -0.83180910      -2.79010795
N        4.84317328       0.59815907       2.98533111       1.60612211       3.91928123       2.33573693
N        1.53342252       8.81868306       7.00548117       0.45911115      -0.16779715      -1.51310229
N        1.88246622       1.46929449       1.24611502      -1.77945017       2.26423137       3.19382481
N        4.76654547       8.39180694       8.89425699       0.03980583      -2.95509032       0.69131680
N        4.78981068       3.20993589       5.60385040       2.39941227      -1.20572078      -1.44141054
N        1.84780371       6.14838775       4.13811259      -2.39540797      -1.19608872       2.60155978
O        2.54171214       6.93605629       9.12732910      -1.00214989       1.14861815       0.92482416
O        6.22617218       3.21966314       0.47696764       0.04689019       0.45239654      -0.08906041
O        5.67432784       7.29013038       6.64871452      -0.40569882       0.08081127      -1.38341926
O        2.57463217       1.81951300       4.40340532      -1.52491802       0.08376384       0.89769571
O        2.35572067       6.49819606       1.53245492      -0.16110191       1.52722068      -1.54151795
O        5.21407107       3.14802639       8.25490883       0.49565508       2.24757334      -0.23025735
O        5.41942667       6.01408716       4.63920538      -0.46116755      -1.49698047      -0.21066987
O        1.65480077       3.83394604       5.44826593      -0.52234718      -1.23439457      -0.30875856
O        1.71669801       8.65859990       0.26440495       0.62281857      -2.71203722       0.29990627
O        5.08286911       1.47324072       9.75890865      -0.70020076       1.04368814       2.27156693
O        6.02288058       8.31581741       4.43641519       0.33388014      -0.64870147       0.83664572
O        0.59908864       1.72720756       6.01592204       0.83832518      -0.47830711      -0.15785166
O        0.38604576       6.60935144       0.10634937       0.25065967       0.30293926       0.49014613
O        3.80260255       3.32223884       0.14311613       1.04850465      -0.67210936      -0.01973306
O        3.76348943       7.80416731       5.08338507       1.54306038      -0.82410164       0.75695339
O        0.35342646       2.58220076       3.76253242       0.05275054      -0.04467241       0.75133642
60
Lattice="6.47746286 0.0 0.0 -0.59146858 7.97257032 0.0 0.80107714 0.58547566 10.8535423" Properties=species:S:1:pos:R:3:forces:R:3 energy=-357.81567101 stress="0.003908923210271825 0.013370974262065578 0.0073958610531236636 0.013370974262065578 0.04482420902143775 0.0014212823420572537 0.0073958610531236636 0.0014212823420572537 0.049747123672421525" free_energy=-357.81567101 pbc="T T T"
H        3.18781232       4.18254464       9.15104534      -0.14039508       0.81572054      -0.22036651
H        5.63660430       4.74530846       1.79382724       1.60205670       0.51741070      -1.27433626
H        5.98873055       0.89722662       3.58724963       1.06705265      -0.99549776      -0.63439018
H        2.68742743       7.82326178       7.46727715       0.25828488       0.09720785      -0.85260733
H        1.68635233       3.78662009       8.89130651      -1.82714776      -0.04805370       0.44405192
H        3.86759822       4.95335451       1.44745814       2.15558864      -1.05875693       1.70687859
H        4.43988382       1.11485429       3.45876106      -0.62255128      -0.28145276      -0.42138142
H        1.03031127       7.42069451       6.95389516       0.88922607       1.09931317       1.59262161
H        2.37225762       5.04748802       7.92847738       0.15772850      -1.48148604       0.95128014
H        4.67508591       4.73720739       3.02832292      -0.64238818      -0.24403018       0.31665253
H        5.09778222       0.28704469       2.10188213       0.63174956       0.92432826       0.89520453
H        1.56742707       7.99030283       8.66040152      -0.16818287      -0.74452772      -2.01181104
H        2.13127596       5.44591862       9.41551459      -1.31882659       1.00929532       2.12583680
H        4.71039528       3.28334998       1.89475313      -0.36307441       3.84792773       0.35056492
H        1.20944973       2.50172090       1.65603913      -1.80655007       3.10330543       1.19294317
H        4.30916156       7.40042778       3.62830479       1.47463290       2.63170511      -0.65281668
H        2.49486916       1.74255814       1.09796464       1.27154585      -0.02410305      -0.58336441
H        6.33590288       6.91645931       9.61901156       0.85690586      -0.39976597       1.18122648
H        6.10504469       3.07386784       6.50016261      -0.20757991      -1.44151938      -0.35762399
H        2.61714884       6.00630167       4.28240502      -0.51701587      -0.53161007       0.76655990
H        1.02013077       1.33347995       0.38948002      -0.64704342       1.40654809      -1.25970631
H        4.80182022       6.93998512      10.77863864       1.22180015      -0.08866686      -3.54569077
H        4.64679487       2.33515580       5.75789731       0.79429995       1.64994243       1.65063747
H        1.21498150       6.29992828       5.21470813      -0.18458798      -1.22947364      -2.15821999
H        1.30962628       0.79777584       1.78857521       0.67810736       2.15277436      -0.43274087
H        5.16838334       8.01293002       9.37255388      -0.78151159      -0.55423701       0.06690277