60
Lattice="5.8677617 0.0 0.0 -0.03147829 8.14504678 0.0 0.12313036 0.10966048 10.71592766" Properties=species:S:1:pos:R:3:forces:R:3 energy=-359.03937951 stress="0.021716860175269886 0.01271952462383603 -0.0035691991043688065 0.01271952462383603 0.010706162390158378 0.0006659393828049048 -0.0035691991043688065 0.0006659393828049048 0.011327664930560446" free_energy=-359.03937951 pbc="T T T"
H        2.70331771       3.73813149       8.79805544      -1.01532103      -0.00532547      -1.29872813
H        5.05769360       5.03111966       2.22530115       1.50500663       1.13580620      -1.43482537
H        5.46138701       0.44627248       3.58741718      -1.34146439      -0.48772420      -1.42719551
H        2.15578071       7.30277388       7.09641660       2.91978274      -3.16086958      -0.09550888
H        1.13190649       2.90072420       8.25343856       2.04086877       3.90580951       0.47929660
H        4.25166877       4.44049970       3.47076241       0.39658911      -1.02827674      -2.14064025
H        4.23323060       8.09784545       2.23295243       1.15499322       0.21460342      -1.29044734
H        1.56098994       8.15313926       8.38118710       0.05120431      -0.00109141       2.63956749
H        1.74337480       4.43567899       7.49166802      -0.09424803       0.07227672      -0.00871178
H        4.60052693       3.33052474       2.03737057       0.42775522       1.30747397       0.52913679
H        4.25886284       7.26285075       3.61084349       0.44436090       2.50979722      -0.23373420
H        2.11013922       0.79973129       6.94245904      -1.77233496      -1.38889695       0.96645764
H        1.31390958       4.46514051       9.14237202      -0.94012413       1.06305934       0.36277344
H        3.49293566       4.52124538       1.96382619      -0.06445183       0.54449924      -0.21814993
H        1.99972165       1.40227554       0.39030763      -0.87123217      -0.57927143       0.08654986
H        3.76735905       0.84237143       3.47979508       0.82677230      -0.58197460       0.52767958
H        1.48296276       1.03123224       2.22684499      -0.61559106       1.76104856      -3.33819012
H        5.31403159       6.32074474       9.50994655      -0.54423189      -0.63662277       0.46892329
H        5.67943784       2.21206197       6.35852843       0.10349736       1.30513706      -0.85721351
H        0.75679113       5.79710398       5.27547015       2.17093822      -1.07111093      -1.84019969
H        0.60254218       2.28312980       1.15150401      -0.03685884      -1.04362143      -0.04996001
H        3.80446449       6.83558977      10.19879349      -0.07435452      -0.15719632      -0.58823646
H        3.94382799       2.56911984       5.72163820       2.04267669      -0.55035275       1.14889726
H        2.46414589       5.62734499       4.35705718      -0.75206978       0.57327090       0.41636072
H        2.16555595       2.48651708       1.56154148      -1.64876628      -1.54303864      -0.28450994
H        4.76727320       7.65179328       9.11177451      -0.06791202       2.31863941       0.06531603
H        4.54063846       3.16218005       7.28043469       0.35725571      -0.83544678      -0.36171072
H        1.14955229       6.66987573       3.80840233       0.97174410      -1.00707043       0.21259009
H        1.05515851       4.95103657       3.64628470       0.79024013       1.49297322       1.45146091
H        4.49654558       1.49464833       6.98956733      -0.72911670       0.58211014       0.10551739
H        4.01471183       6.43899096       8.51302569      -2.22005311      -1.95682072      -2.77760140
H        0.79204789       7.80458884       6.99722172      -2.73403709       0.43148758      -0.82408497
S        1.31299794       6.14150781       0.89118348       1.83652403       1.76768190      -4.19894410
S        4.29574037       2.13911152       9.92762437      -0.71488851      -1.55089792      -3.44943053
S        4.55737539       6.21409388       6.06651726      -2.38972469      -0.60808937       1.74217661
S        1.66378625       2.02029759       4.59291486       0.04451078       3.89812511       2.88063943
N        1.69590624       3.93983071       8.37217940      -0.11712810      -4.94692167       0.66158182
N        4.41001693       4.30899439       2.38576863      -2.40969979      -1.64049291       2.90275970
N        4.50181587       0.13836481       3.19123841      -0.97231337      -1.59439876       2.46382355
N        1.63843805       8.03531625       7.42239533       1.20343952       4.14084120      -2.28745081
N        1.44589740       1.70124098       1.28422420       2.94692178       1.23152812       3.51225701
N        4.37905400       6.76429653       9.32917475       2.96708225       0.44325271       3.91683603
N        4.67398080       2.41567339       6.55390379      -1.81309662      -0.35088757      -0.25050550
N        1.42883032       5.76716419       4.27087680      -2.92980044      -0.50464384       0.12335187
O        2.50602320       7.08842197       1.07796510      -1.72998294      -1.18431112       0.28733553
O        5.34200406       1.29253552       9.23734557      -1.00517622       0.45058112       0.80401377
O        5.71244503       5.44281905       6.53822435       1.22173435       0.52572071      -0.51184496
O        3.08276072       2.34307608       4.25271759      -0.51056180       0.06545038      -0.15045295
O        0.05509460       6.68354924       1.44952317       0.70345678      -0.41638084       0.18057547
O        2.90738799       1.46621872       9.83671141       2.10634437       0.69086872      -0.08589798
O        3.41881370       5.84626347       6.98454574       0.44441446       0.44212896      -1.34421665
O        0.67161344       2.86838518       3.99864283      -0.49154652       1.24304258      -1.76482315
O        1.30774931       6.02179603      10.06034607      -0.64807339       1.13975761       1.97323972
O        4.51332832       2.26787983       0.58521792       0.23317591       0.18771771       1.57657666
O        4.22511664       5.77159780       4.68496714       0.03032013       0.47479610      -0.45944755
O        1.47766976       2.29931721       6.08508292       1.29362312      -1.41806953      -0.56147374
O        1.65428522       4.82917748       1.38547900       0.15392425      -1.61284634       1.81156137
O        4.22527557       3.39419426       9.12096299      -0.15014545       0.22947510       0.84307094
O        4.77190698       7.66858565       6.11992222       0.36399102      -0.35918333      -0.20407661
O        1.38806828       0.67904107       4.24153466      -0.34884247      -3.92712618      -0.80211386
60
Lattice="5.88393087 0.0 0.0 -0.24246416 7.47520956 0.0 -0.24949393 -0.02992295 10.60396979" Properties=species:S:1:pos:R:3:forces:R:3 energy=-360.08192634 stress="0.028654184747170172 0.013265205018025939 -0.0006330597306391553 0.013265205018025939 0.005619118780740107 -0.004587867663634803 -0.0006330597306391553 -0.004587867663634803 0.016341950363079474" free_energy=-360.08192634 pbc="T T T"
H        2.12124077       3.08886496       8.93562209       0.13341319       0.83516159      -0.72371503
H        3.81264834       4.71586947       1.81061098       0.67394009       0.93366683       0.26868407
H        3.42413913       0.19853287       2.82263498      -0.91721687       0.84073310      -0.10587953
H        1.95191301       6.74389914       7.27956164       0.50007476      -0.07538520      -0.16134077
H        0.71027229       2.42903367       8.81008434      -0.00535627       1.70391919      -0.96761540
H        5.33539829       3.89514732       2.39124598      -1.92562791       0.60338131      -0.62335816
H        4.68172690       1.33796812       3.57435952      -1.50493907      -1.06485980      -0.72609199
H        0.22701575       6.11594610       7.31797727       1.77738171       1.18615225       0.24405575
H        1.22470471       3.50325147       7.49998286       0.06279385      -0.23079675       1.63649914
H        4.24003151       3.23038655       1.28128382      -0.22118759      -0.25459028       1.98212985
H        4.29252789       7.13506302       3.96265887      -0.20681475       0.76963525      -1.66452824
H        0.91205556       7.22085718       8.52167524       0.16865783      -0.10752740      -1.04121303
H        0.77706569       4.16643128       9.12842252       0.67355191      -0.83791925      -0.80472991
H        3.74976222       3.65356221       3.04778706       0.23720173      -0.74553000      -1.21084834
H        1.31853677       0.59800729       1.39884176       0.97608726       0.10332882       0.72502678
H        4.99200851       0.31638555       2.39056977       0.56891155      -0.92148401      -0.68303783
H        2.16397974       1.55960957       0.28328293      -2.08679114      -0.34756521       0.63309903
H        4.47697374       6.06428893      10.40570175      -1.28784238      -0.26887339       0.72424920
H        5.32341230       2.01830030       6.06824843      -1.32666451       0.31354465       0.03044691
H        1.72776323       5.12393068       4.93872820       0.63596191      -0.78218118       0.89723381
H        1.76091916       2.26257963       1.68928280      -0.41006949       0.11281918       0.90969141
H        4.30394661       6.42201297       8.91923048      -2.11812187      -0.04168898      -0.15862761
H        4.36279712       2.84121067       7.28023934      -0.59379891      -2.20724836      -2.47626360
H        1.53205035       6.19307827       3.72992601      -0.62417151       0.72230580       0.29638800
H        0.31071209       1.66556114       0.86409650       1.75974825       0.84082170      -0.48528532
H        3.92815436       4.88357294       9.39058690       0.86288266      -0.17433877      -0.11469545
H        3.91496583       1.24178848       6.51232508      -0.43388220      -0.86226001       0.63346681
H        0.13985736       5.50470864       4.58744604       1.02706762       0.21623373      -0.89772880
H        1.10080502       4.67468569       3.46684396      -0.03089260      -0.89191292      -0.16250363
H        3.65680205       2.64951383       5.55821774       1.56446403      -1.13072685       1.58350286
H        2.76089023       5.75947275       9.84100854       0.13726319       1.94983806      -0.07234702
H        0.88047398       0.24371276       6.89180511       0.88400134      -0.25723305       0.67437554
S        1.22755524       5.60018232       0.98520921      -1.00982425      -1.87352936       0.46681996
S        4.19533634       1.72034981       9.60836391      -1.60174909       2.00907878       2.09833480
S        3.88100805       5.58174480       6.12168056       1.27362514       1.50479816       2.20183057
S        1.47822841       1.96125882       4.37973516      -1.62214000      -0.23892219       3.19772940
N        1.19885651       3.36209688       8.55500649      -0.75527555      -1.58557000       0.36955416
N        4.27463792       3.87769978       2.15625978       1.10374214      -0.48752808      -0.23670298
N        4.35026548       0.40031783       3.15141244       2.29684493       0.82021987       2.80223104
N        0.99151499       6.94952146       7.51985364      -3.21997224      -0.60510658       0.34683853
N        1.40350739       1.56158982       1.06851103      -0.42139101      -0.85380955      -2.37622893
N        3.78060710       5.87534528       9.64885645       2.40925136      -1.27310163      -0.42374660
N        4.29646708       2.15216215       6.34878557       0.95513362       3.99690769       0.42086658
N        1.11875598       5.38165846       4.18521902      -1.24780366       0.71247401      -0.17023331
O        2.40488496       6.32973355       1.35106515       1.88520623       0.41883896       1.49240498
O        5.33175624       1.04728996       9.03822928       0.52031318      -1.05633749      -0.28298532
O        5.14289502       5.03091162       6.82182654      -2.05180972      -0.37040731      -1.32249657
O        2.68510024       2.83758490       4.25980967      -0.54588534      -0.66359770      -0.58234300
O        0.03253573       6.33273880       1.39927949      -0.79923301      -0.13779311       0.87231916
O        2.84511519       1.18697013       9.29453338       1.24142842       0.07446632       0.03730203
O        2.62538042       4.80427058       6.40577205       2.21356166       0.38378001      -0.91940596
O        0.24194311       2.70564311       4.01035202       0.56936987      -0.30089287      -0.84470863
O        0.92901557       5.53758072      10.14578116       0.22990574      -0.44958528      -2.92149347
O        4.54710598       1.69686776       0.57458289       0.26100342       0.50665000      -2.47082981
O        4.21422116       5.78864020       4.65385436      -0.71421275      -1.37547109       1.43955760
O        1.28300251       1.65535302       5.88760821       0.55690864       0.38990046      -2.04785307
O        1.26297125       4.16032471       1.48587999      -0.21198734       2.17198289       0.02805085
O        4.26032623       3.16659051       9.10707980      -0.41262354      -1.42385103       0.99538723
O        3.70134792       6.93306407       6.75135553      -0.15728973      -0.90889650      -0.73247135
O        1.57360534       0.70122762       3.62118782       0.30487709       0.68588258       0.40323260
60
Lattice="5.75629072 0.0 0.0 -0.19313353 7.78012815 0.0 -0.20046651 0.31028355 10.8689902" Properties=species:S:1:pos:R:3:forces:R:3 energy=-358.47663763 stress="0.01576927006173925 -0.007962976212715937 0.011481726746714492 -0.007962976212715937 0.016865926670748235 0.0012790085396307887 0.011481726746714492 0.0012790085396307887 0.024520099188804743" free_energy=-358.47663763 pbc="T T T"
H        2.27615362       4.05850333       8.59413338      -0.64836707      -0.54861900       0.12225564
H        3.50450484       4.12501301       2.86949395      -0.59221961      -0.56363675       0.11886760
H        4.71609482       1.02018358       3.45300667       1.17852094       0.25120603       0.43968851
H        1.02666680       6.68562544       7.68861683      -0.06979158       1.50334858       0.42485454
H        1.11117894       4.53029888       9.78790239       0.08508472      -1.35790927      -2.27496212
H        3.92859340       3.44609772       1.26422757       0.74123548       1.22500730       1.86940087
H        4.33444884       7.80140388       2.08541478      -0.78111423       0.39147378       1.45044497
H        1.15242715       0.47673831       6.94425436       0.44239543      -1.33180561       1.09574147
H        0.75556178       3.06971938       8.82928746       1.13223759       1.27002675       0.33202165
H        5.06128730       3.52849873       2.60643439      -1.66699972      -0.04005228      -0.38443341
H        3.99538344       7.23308948       3.65280784       0.05266112      -0.26665723       0.42151930
H        1.59592661       0.66851966       8.55974193       0.07647291      -3.28757536      -2.06868713
H        0.70283248       4.65108000       7.94723347       1.35032841      -1.72217173       2.72488311
H        4.65969731       4.90884414       2.05275792       0.23147899       1.97277459      -1.26246899
H        1.16607748       2.55049855       1.01109760       0.13693057      -0.99541865       0.65010031
H        3.29575510       0.69699362       3.07031420      -3.58951253       0.87751788      -0.20011305
H        1.03459245       0.90207615       1.83525682      -0.69986615       1.32470770      -1.64026148
H        3.54055556       5.83631651       9.50667553       0.46275266       1.50446181       0.41812267
H        4.58154193       2.66878777       5.48684114       0.85016405       0.40502998      -0.77351762
H        1.27221607       5.77375834       5.23208929      -1.46763981       1.26859770       4.67016791
H        2.24472432       1.19343109       0.79974628      -0.95417248       1.12784235      -0.09486724
H        3.72675895       6.19710480       0.09129343      -0.71658801       0.94445593       0.77520885
H        5.04023913       2.74957920       7.26837362      -3.25176624      -0.86660395      -3.28944887
H        1.16554766       6.21034119       3.76491006       1.81723911      -1.77114776       0.91663933
H        0.75838622       1.27188966       0.04861384      -0.66451714      -0.48140199       0.48874300
H        5.02467385       6.54522086      10.10387709      -2.57733212       1.28148948      -0.69145219
H        3.60401288       1.83371056       6.43844460       0.70973040      -0.19246256       0.71327953
H        1.20053773       4.51241126       4.25917445       1.15360748       1.23142136      -0.03529680
H        2.76345195       5.43313430       4.49813431      -2.40015695       0.34543456      -0.47336178
H        3.47370139       3.49074743       6.57517008       1.86746728      -0.93190505      -0.41182059
H        3.54568894       7.52297369       9.54133620      -0.53316017       1.72387057      -0.40400019
H        2.35554694       7.69231540       7.36909101       2.78743062      -0.46126922      -0.64912153
S        1.05946005       5.74794015       0.82925135      -2.32514619      -0.62376150       0.58610740
S        3.96782649       2.41732853       9.85690853       2.53492408      -1.79501519       0.71941400
S        4.21273439       6.03882085       6.29817669       1.83008722      -0.39759850       3.05657098
S        1.31381475       2.02555250       4.72873831       1.61331752      -2.03565678      -3.89097316
N        1.26760467       4.02327903       8.81316701      -2.65221558       2.42124624      -1.22947862
N        4.21951454       4.02907257       2.16605867       1.23477378      -3.06660547      -0.16755934
N        4.15080368       0.27384525       3.05316521       3.20231722      -1.10520399      -1.76538069
N        1.44505007       7.65834358       7.70394645      -3.90741960       3.82537208       1.11071873
N        1.22626323       1.48817382       0.95538793       2.19533753      -0.85204855       0.62360575
N        3.83638582       6.72421980      10.02975590       3.70104492      -5.17927730      -0.76864452
N        4.19564843       2.67065237       6.41444989       0.05516775       1.09889505       3.78681006
N        1.64229120       5.46450187       4.42979271       0.58954299      -0.60390511      -5.02220517
O        2.24693202       6.07234874       1.57754589       0.96178793       0.63989364       0.14921785
O        5.35153669       1.88025123       9.37536531      -1.69807374       0.67985074       0.49944286
O       -0.25898519       5.69860385       7.02391493       0.31981721       0.17446159      -1.19767803
O        2.36940654       2.81536014       3.96759249      -1.15696952      -0.76598033       1.06908588
O       -0.17890036       6.36742255       1.55044004       2.12821615      -1.07774072      -1.02115361
O        2.94650136       1.76006437       9.01540576       0.36599280       0.02174665       1.22423161
O        3.27359125       5.07713969       6.92908853      -1.22942840       0.73995270      -1.32233884
O       -0.00873882       2.30692705       4.12846496      -0.88514712       1.03477504      -0.59247581
O        0.90142357       6.56113678      10.28843146      -0.50017978       0.10574892       0.86740169
O        4.11000393       1.82000771       0.48122302      -0.76534441      -0.81137449      -1.24677462
O        4.41060401       5.89928875       4.83228772      -0.67930541      -0.77766600      -0.01409435
O        1.29387216       2.30881796       6.11577623       0.22876121       0.90261847       2.62059088
O        0.89550841       4.25216848       0.74501635      -0.00677408       1.14042196       0.22474448
O        3.90756171       3.84295024       9.76209126      -0.06879713       1.82138454      -0.80392849
O        3.83794432       7.41029242       6.62142383       0.23836917       0.15762428      -0.47381171
O        1.56189494       0.56920308       4.49651722       0.21280948       0.49781211       0.00042854
60
Lattice="5.78113083 0.0 0.0 -0.14482365 7.6801867 0.0 0.77934343 0.18733656 10.8759182" Properties=species:S:1:pos:R:3:forces:R:3 energy=-357.05255468 stress="0.015961235589139363 -0.001235318774662774 0.006295331231936049 -0.001235318774662774 0.0005179903384095119 -0.016099975436615736 0.006295331231936049 -0.016099975436615736 0.03214538962894346" free_energy=-357.05255468 pbc="T T T"
H        1.95359104       2.87595053       8.90846046       0.14012263      -0.26302646       0.26506188
H        3.92092426       4.94958106       2.04479824       1.06166142      -2.31594572       1.07544170
H        4.40749509       7.68563239       2.19082495      -0.31706551       0.06514885       0.33965900
H        2.40238363       7.03116484       7.49431529      -0.20323597      -1.37822575      -0.57503389
H        2.73621150       4.04651083       7.82224195      -2.19172835      -0.20179932       1.95275501
H        5.54667702       4.45546025       2.12757855      -0.93859948      -0.96122058       0.06858285
H        3.69219508       0.36867383       3.73588269       0.70812555       0.07330123      -1.25927469
H        1.55621696       6.99039295       9.03881574      -0.06964408      -0.21229571      -1.97660856
H        2.25644525       4.53332466       9.40450609       0.43825280      -0.05895661       0.86065517
H        4.29829450       3.44663712       1.17316322       1.10052859       0.77558593       2.82265520
H        4.90901122       6.96653525       3.65688034      -0.64652177       0.81277447      -0.62691477
H        2.12214110       0.56985884       8.28562512       1.33470616       3.42435703       1.01897536
H        0.96130834       4.19039719       8.41538625       3.11381666      -1.39558613       0.16893948
H        4.48196128       3.29837874       3.08944128      -0.23431619       3.21083008      -3.02811330
H        0.79601634       1.51057950       0.15033075       0.08533661      -0.71240116       1.09301169
H        5.27564983       0.94652887       3.44355378      -0.35317768      -0.49904651      -0.42492528
H        0.88194327       2.01926795       1.67095704      -2.20813528       6.99415368       5.55746506
H        5.41519137       6.41256445      10.30863912       1.24761384      -0.31519373       0.91624691
H        3.99847450       2.54368299       5.50463881       1.09085784       1.33721802       2.57804344
H        0.62915690       5.66830053       4.29267847       0.92173376      -0.14042891       0.77230363
H        2.26523988       1.25167638       1.04755419      -2.48533747       1.19748193       0.28540830
H        4.95454624       7.23775474       9.05807449      -0.74921812       1.04301989      -0.18208338
H        4.60489044       1.44435636       6.38499240       2.18545689      -2.71001719       0.46350033
H        2.01103971       4.81121749       3.78594356      -0.01168479       0.89985084       0.04690332
H        0.92552313       0.43449849       1.53645217      -0.40236862       0.27077316      -0.68453662
H        5.30117840       5.53671119       8.58712548      -1.68073026       1.99359312       2.15726379
H        3.97757264       2.52137110       7.33599737       0.50940644       0.28402950      -1.10788393
H        2.10982856       5.28483933       5.29769043      -1.08816415       0.64330301      -0.20791827
H        2.10534153       6.51019268       4.21443570      -0.07296421       0.47683214      -0.60985871
H        5.36540480       3.13437716       6.59542532      -0.49516760      -1.73017592      -0.37799615
H        3.92042944       6.12482635       9.90452882      -0.54595873       0.10616741      -0.99561607
H        0.81536952       7.66826266       7.55750448      -2.31486156      -0.25626579      -1.31456836
S        1.61510108       5.48989757       0.93885494       1.33452777       0.44819488      -2.40052860
S        4.85713490       2.10631365       9.93658222       2.32810541       0.73548858      -3.72480759
S        4.61841963       6.02915617       6.26490443      -2.69293710      -1.53622263       6.88903837
S        1.77507662       2.18924871       4.61393428       3.36919825       0.46646504       0.95172246
N        2.02258626       3.85449480       8.66593075      -1.78878668       1.03169603      -3.82748548
N        4.58961689       4.04179893       2.18208202      -1.38318419      -0.56534210      -0.62288239
N        4.64186514       0.14181367       3.20213004       0.59438639       0.34959293       1.44660050
N        1.62204255       7.40060164       8.02857030       1.61956548      -1.61318039       2.81177596
N        1.15885571       1.36825402       1.14248160       5.25285914      -7.86850666      -6.54923172
N        4.83840687       6.35096290       9.50428155       1.76899030      -2.91813538      -2.47938261
N        4.59420959       2.41084898       6.49346729      -3.21230661       3.51220266      -1.56668198
N        1.66891565       5.61551998       4.37834036       0.47776668      -1.83570924       0.22639735
O        2.85097789       6.18237437       1.44408636      -0.68005122       0.04991430      -1.03919595
O        6.08341861       1.30010765       9.48392411      -0.63975204       1.37605535       1.46388776
O        5.60304218       5.14569739       7.04874795      -0.59195028       1.08878424      -0.76068129
O        2.87548754       3.24288156       4.24240835      -1.43350987      -2.25014868       0.82021070
O        0.43961374       6.17603112       1.42242806      -1.05510627       0.69041042       1.02528452
O        3.71890173       1.32751533       9.53833546      -2.03739093      -0.74703990      -0.21057872
O        3.18622884       5.54690586       6.73972189       2.53831274       1.05871130      -1.11440930
O        0.55754953       2.52985009       3.90144940      -0.89058212      -0.23036911      -0.06277168
O        2.21221905       5.79105295      10.20658298       1.14237652       0.41642504       3.56270637
O        4.07158337       2.12807771       0.50527493       0.14616321      -0.18251721       1.16865371
O        4.69794701       5.76017573       4.88738782       0.73442370       0.06110446      -3.00817214
O        1.64243831       2.18199271       6.10979948      -0.03887828      -0.36652411      -2.18778969
O        1.73471665       4.09988538       1.34018861      -0.74560771      -0.08669718      -0.42610990
O        4.86901611       3.41361660       9.18774056       0.06346156      -1.11880049       1.32339804
O        4.79236473       7.42772165       6.77799012      -0.05040910      -1.32368111      -1.65489038
O        2.30280333       0.84580691       4.08130076      -1.05842409       0.89999415       0.87438357
60
Lattice="5.91639154 0.0 0.0 0.24577319 7.92492783 0.0 -0.00320118 -0.19268518 10.41767679" Properties=species:S:1:pos:R:3:forces:R:3 energy=-359.69608246 stress="0.003224501083669789 0.001632812341684121 -0.005811282376190819 0.001632812341684121 0.01472161567194927 0.007495614899188523 -0.005811282376190819 0.007495614899188523 -0.014890159518173391" free_energy=-359.69608246 pbc="T T T"
H        1.46678733       4.48320600       8.52865456       1.22358167      -0.21248214      -0.46089054
H        4.56172008       3.23358990       1.83033289       0.31098629      -1.16145490      -0.13509553
H        4.35253452       6.90863911       3.55656392       0.36456837       1.38830525      -0.74349027
H        2.79802244       7.77264541       7.36372025      -0.02413862      -1.21898837      -0.16084813
H        1.16604854       3.75945647       7.06960413       0.70949658      -0.13071812      -2.85224213
H        4.28736233       4.79417242       1.79775890      -2.20330489       2.54171660      -2.31594756
H        3.63256049       0.66408856       3.52198713       1.55149345      -0.92740131      -0.92094786
H        1.20943651       7.18236699       7.05874579      -1.05012769      -2.96856232      -1.19076336
H        0.31726476       3.62671289       8.35238487      -0.55778090      -1.76688006       0.49424269
H        5.91596130       4.46969444       1.92704331      -2.33446012      -1.66521924      -0.15592390
H        5.22882838       0.03152919       2.96738450       1.45414985       0.82043662       0.14847919
H        1.32837383      -0.05686552       8.50263131      -0.13371788       0.74653638      -1.17451968
H        1.87408949       2.86151641       8.39940922       0.23561539      -0.89493724      -0.15830430
H        4.75517107       4.36498831       3.12287905       0.05555907      -0.90540147       1.54153070
H        0.56083268       1.77586148       2.00555019       0.84340512      -1.40913749      -1.68673137
H        4.11996312       7.67891725       2.15144965      -1.63328539      -0.59465819      -4.38936116
H        1.95133355       2.15853725       1.44776517       0.45797478      -1.52259966      -0.83785488
H        5.53825645       5.74563218       9.41286582       1.99053238      -1.46425741      -0.41553743
H        5.16435560       2.22053588       6.12417454      -1.85225294       0.08925132       1.73464321
H        2.74697629       5.58270391       4.41125335      -0.64643635       0.34943568      -1.41566716
H        0.83353169       1.72951637       0.34941878      -0.87412565       0.36254481      -1.90036870
H        4.22769978       6.15011127      10.09123472      -1.51513932       0.02226906       2.11736586
H        3.68403693       2.04340652       5.60968830      -0.75858166       1.14923641      -0.10557498
H        1.21977420       5.50466513       4.92682563      -0.98186406       0.20966020       0.06077525
H        1.38831277       0.48913498       1.15659913       0.86596510      -2.98362809       0.50812661
H        5.02575884       7.25709617       9.19321025      -0.15497102      -0.13018357      -0.23907901