60
Lattice="5.81335585 0.0 0.0 0.20828799 7.72994165 0.0 -0.0474476 0.03167873 10.25959131" Properties=species:S:1:pos:R:3:forces:R:3 energy=-358.77964705 stress="0.04029511520256981 0.008273645076271981 0.0054471376480592325 0.008273645076271981 -0.003380222311130606 -0.012912654086582463 0.0054471376480592325 -0.012912654086582463 -0.0011416187430613642" free_energy=-358.77964705 pbc="T T T"
H        1.93965277       2.82207240       8.67300317       0.54776596       2.03006782      -2.42416367
H        3.33352681       4.36450447       1.95339171       2.51240710      -0.46500786       0.43065155
H        3.70002199       1.26380315       3.17871738       1.18599913       0.05237868       1.67261042
H        0.52305491       7.25641302       7.02745973       1.88732135       0.22682953       0.31415133
H        1.98598584       4.10826045       7.29697304       1.35336095      -0.47090201      -0.83280668
H        4.65277923       3.31399995       1.89687645       0.32381458      -4.14817118      -2.19730626
H        5.27188273       0.38764364       2.76324651      -1.61136850       0.78040154       0.18922394
H        1.19305441       0.19099367       8.31310717       0.88926809      -1.11297347      -1.85939133
H        1.64415266       4.60175606       8.93051430      -1.60362183      -1.59704504      -2.20715444
H        4.61913081       3.99898429       3.18316029      -0.47989634       1.23267356      -0.31309150
H        4.47989739       7.25025895       3.69275532      -0.76076920       0.81142238       0.94849324
H        2.24396251       6.87564195       7.00269400      -0.11944218      -0.67058904       0.92811884
H        0.64250531       3.21518802       7.77742057       0.94820879       1.85476374       0.81033178
H        5.10687338       4.75701206       1.73161392      -0.04577566       1.26332546       0.05751220
H        1.03250033       2.23157628       1.37397350       0.02592139       1.33119015      -0.56432974
H        3.69762073       0.07157761       2.37553706      -1.27462846      -1.96686846      -3.21281859
H        2.69873126       1.55753346       0.84533718      -2.44307347      -0.29156040       0.55911357
H        4.90832524       6.44202248      10.00952106       0.17372137       0.60726312      -0.18284631
H        3.78955853       2.32330051       5.12447821       1.25349865       0.28689697       2.09435135
H        1.29601536       4.29500644       3.54426343       1.03154259       0.23441895      -0.76041041
H        1.01431377       1.01226399       0.25785451      -0.69778346       0.25067675      -2.05788155
H        4.48680545       7.07171628       8.41212013       0.41470384      -1.52430870       1.12307081
H        4.41040119       3.42158579       6.25789558       0.00451409       1.81827605       0.92849357
H        2.41000768       5.55834809       4.17085936      -0.22104510      -0.63189898      -0.23267844
H        1.14474652       0.74759534       1.75556320       1.68282336       0.06634462      -0.18217698
H        4.83938549       5.33778233       8.84482609      -1.04822357       0.68596908      -0.32760393
H        5.44310722       2.15324675       5.84832962      -2.67790776       0.88328583       0.59964571
H        1.00775226       4.80589389       4.95099796       0.44089246       2.24711795      -1.20483519
H        0.90409225       5.89797961       3.50000807      -0.13060112      -0.06291473       0.63858275
H        4.05039784       1.84071376       6.81067836      -0.43980393       0.40955196       0.28551735
H        3.36307491       6.24732916       9.39453109       1.76342491      -0.66781614      -0.87888477
H        1.48771038       0.66824121       6.68033928      -0.18377839      -0.57139757       0.79738147
S        1.65098515       5.66229030       0.85416987      -1.13180135      -0.69284203      -1.25126577
S        4.53819011       2.15663248       9.48041300      -0.57233607       0.10005413      -2.13070581
S        4.38972094       5.93637387       5.88790497      -1.11639118      -0.81430294       3.03487257
S        1.47735304       1.77375981       4.33191893      -1.51015808       1.49601031      -0.50839108
N        1.54841612       3.67551301       8.07806435      -1.32478036      -1.04419964       4.40329841
N        4.40625155       4.17770224       2.18408498      -2.37833045       1.79690263       1.92997919
N        4.26776660       0.37649066       3.08118970       2.59640777       0.06641571       0.25454340
N        1.53403689       7.55169201       7.31193009      -2.51530427       1.37835141       0.12105388
N        1.49021478       1.41281301       1.02435566       2.56677949      -1.17577034       2.44614966
N        4.41953586       6.26216485       9.12220748      -1.40290695       1.18665421       0.20918828
N        4.38258454       2.46010569       6.06864634       1.78539704      -3.39163923      -3.44417594
N        1.44862549       5.20025851       4.01869053      -1.15816069      -1.59036463       1.72081536
O        2.77571821       6.34822211       1.48913474      -0.12262813      -0.06012091      -0.85161940
O        5.77454915       1.35675584       9.11243747      -1.86944809       0.91836380       0.18629895
O        5.45513523       5.01118446       6.29230164       0.56663108       0.11255178       0.13422716
O        2.76263117       2.38922222       3.79677568      -1.20175724      -0.12239406       0.44809563
O        0.37486261       6.15175591       1.32548882      -1.70859120       1.65185950       1.40993837
O        3.35633473       1.72630223       8.58956212       2.10035974      -0.08722251       1.89776522
O        3.09372710       5.41145686       6.51987055       1.64683685       1.11968360      -1.33383111
O        0.27787967       2.58051281       3.73933294       2.71578571      -1.50549773       0.98977559
O        1.47848052       5.92578917       9.59295374       1.94990570      -0.73714563       1.27893194
O        4.23232130       1.82541648       0.65401078      -0.32791016      -0.06539582      -0.38861001
O        4.29978788       5.90496021       4.44147855      -0.59064972      -0.07358996      -1.54105129
O        1.46797526       1.90243980       5.82859366      -0.18197510       0.98773146      -1.71249725
O        1.64464327       4.21802196       1.17042403       1.30272200       0.05915384      -0.28535626
O        4.79891833       3.61480883       9.27029729      -0.45037426      -1.98731584       0.76891589
O        4.65983447       7.31328813       6.38309030      -0.23512286      -0.61890386      -0.36411671
O        1.40410562       0.36270426       3.96726690      -0.13366885       0.20157217      -0.36109896
60
Lattice="5.98270284 0.0 0.0 -0.25224763 8.00232513 0.0 -0.27075322 0.13619053 10.96017522" Properties=species:S:1:pos:R:3:forces:R:3 energy=-360.26886603 stress="0.022042008597258394 -0.010127713193004796 0.0017308794011831833 -0.010127713193004796 0.010141746458568723 0.0021003556388931176 0.0017308794011831833 0.0021003556388931176 0.012225461709845469" free_energy=-360.26886603 pbc="T T T"
H        0.67946144       4.23150989       7.88580935       0.26240545       1.45216306      -1.42126221
H        4.62498048       3.40582811       1.51223467      -1.71949253      -0.89139359      -0.38893893
H        5.12496664       0.19847506       3.44578341       1.93493777      -1.02169170       0.38606930
H        2.05367676       7.80074979       6.87739575      -1.28422498       0.72467079       1.76276403
H        2.04696714       4.06877075       9.08203411      -1.89088539      -1.21961223      -1.49912750
H        3.84478306       5.04081800       1.50681475       1.20478885      -1.11515655       0.74515013
H        3.66615149       0.89956787       3.91149144       0.31471537      -1.24035189      -1.76229298
H        0.40877778       7.59441912       7.21672025      -1.31342620      -2.10608922      -0.48229300
H        0.34264466       3.37800166       9.19782650       1.33520195       0.57606094       0.24911996
H        5.46922841       4.44366466       2.08915341      -0.09921742       1.41263504       0.19536972
H        4.06728615       0.60359437       2.16975235       0.84717969       0.59044842       1.21053085
H        1.25815467       8.10487656       8.47127353       0.44153923       0.74018282       0.28402996
H        0.92813974       4.92965662       9.54502392      -1.64793782       1.07343190      -0.99921297
H        4.09307995       4.13598736       3.01905436       0.65097677       0.05199348      -1.84026645
H        1.07956130       2.08271681       2.11430022      -0.43424394       0.77809559       1.17690983
H        3.35107903       7.38001188       2.96132821       1.29384636      -0.05108931       1.18728814
H        2.22718090       1.65082024       0.95604754      -0.21170041       0.55234595       0.76965794
H        5.14943050       6.80013688      10.28164984      -2.17215856      -1.44938565      -2.39100859
H        5.17422105       2.57176649       6.55757345      -0.31104279       0.98710569      -0.21429924
H        2.23741534       5.46164961       4.49243498       0.57459545       0.22517941       0.49727364
H        0.75641135       1.61801184       0.51797339      -2.26857457       0.22641558      -1.74796242
H        3.37431559       6.54159347      10.40508827       0.75563644       0.18133343      -0.17145913
H        3.68978241       2.14773425       5.95390574      -0.50403712       0.69738663       0.27852503
H        0.68005306       5.87580257       5.16030828       0.27043286      -1.75195511      -0.03639523
H        1.36682816       0.41349926       1.57223867      -1.26649880       1.77475489      -0.05574985
H        3.93201453       7.55119225       9.26957159      -0.08334796       0.54495970      -0.18129956
H        3.74401345       3.43650829       7.14119774      -0.02689946       1.18650790      -0.29555244
H        1.03382024       4.41813305       4.01385828      -0.66072491       0.21702944       0.91782407
H        0.97413099       6.07905097       3.55637695       0.61225647      -1.58156606       1.30051556
H        4.13476251       1.87288913       7.53032659      -0.59530049       0.37419534      -0.24041338
H        3.88224885       5.91571287       8.94053047       1.56255600       0.64188907       0.88810375
H        1.07931927       1.03036761       6.97338748       0.84048867       0.60327477       1.15694706
S        1.40336213       5.90583061       0.82574399      -0.05019462       1.14685438      -0.22718152
S        4.06747037       2.25164501      10.22737111       1.67717986       0.53086173      -1.64594591
S        4.19055464       6.11961913       6.19640027       0.31124786      -0.86880087       2.15382215
S        1.22294093       1.89611108       4.70716586      -0.07907380      -0.27968558      -0.28710397
N        0.96001272       4.17696937       8.83167050       2.11460864      -2.23960843       3.47183348
N        4.45938492       4.27430470       2.01919330      -0.22403630       1.08576837       1.72750756
N        4.18561789       0.22258343       3.15267906      -4.30857678       1.77463159      -1.15457084
N        1.41871010       0.16787890       7.46712189       1.73082203      -0.22362448      -2.23379702
N        1.26621763       1.47912967       1.34605737       4.11692562      -3.36093321      -0.17810846
N        4.13757519       6.64987005       9.69043388       0.22136020      -0.01111023       1.27645347
N        4.15263470       2.58911314       6.77527892       1.54666485      -3.05997310       0.80566460
N        1.22683345       5.38198671       4.37774519      -1.08363276       2.95472401      -2.52178452
O        2.83933349       6.33223437       1.07279192      -0.76581593      -0.91455696       0.80665966
O        5.56422847       1.88134019      10.07694983      -2.12477192       0.85467354      -0.42664807
O       -0.32799099       5.91821622       6.57739832      -1.28267812       0.80872068      -1.01549480
O        2.68980760       1.93759884       4.70164303       1.28284693      -0.06059810      -1.23877376
O        0.49056714       6.72140148       1.68862707       0.86027313      -0.86579986       0.27606645
O        3.26635320       1.36039325       9.36926458       0.11114022      -0.49627475       0.86084000
O        3.43604713       5.20295602       7.13869279      -0.00607451       0.99824237      -0.85668053
O        0.66698191       2.79358080       3.66106909       0.00869834      -0.24278143       0.07683688
O        0.85843304       6.41916840      10.39845681      -0.33383416       0.96704957      -1.44374534
O        4.04478291       2.01060025       0.72791960      -0.38004992      -0.58078473      -0.55505811
O        3.95179007       5.73518744       4.77582412       0.30747201       0.41686681       0.76570025
O        0.86422813       2.41660767       6.02730395      -1.00042542       0.18384283       0.89347790
O        1.15768446       4.47168869       0.88944715       0.45456286      -0.22751137       1.35954557
O        3.80826853       3.63860883       9.71693799       0.44824992      -0.68714170       0.99148627
O        3.76165054       7.53201936       6.50856130       0.38371699      -1.03213764      -0.81829053
O        0.79156437       0.51060514       4.50092386      -0.34844922       0.24531803      -0.14125597
60
Lattice="6.63917871 0.0 0.0 0.11708813 10.10895929 0.0 -0.48768768 2.30900548 9.8882144" Properties=species:S:1:pos:R:3:forces:R:3 energy=-356.67132473 stress="0.03704003112988129 0.008200502590931328 -0.003969158017562804 0.008200502590931328 0.040908490418037194 -0.012755661245259885 -0.003969158017562804 -0.012755661245259885 0.01854740712366785" free_energy=-356.67132473 pbc="T T T"
H        1.36162400       6.56486672       8.87219305       1.44124480      -0.85463541       0.02397489
H        5.53956486       5.97590212       2.99716802      -1.46714397       1.47354665      -2.34882040
H        5.66706075       1.95712491       3.42859585      -2.74211110       0.23264863      -0.35478173
H        2.79240508      10.29396799       6.30667239      -2.51102163       1.03717338       0.39337202
H        6.21162437       6.27699615       8.81810264       1.12016136       0.52147263       1.55817199
H        6.44294143       6.97269519       1.63811670      -1.50169762      -0.14024084       0.74323426
H        3.76381946       1.79053611       3.58555613       1.54108933       0.13292986       0.91371142
H        0.92499356      10.33347068       6.38382380       2.01920649       0.66191181      -1.21940797
H        0.26051169       7.49231543       7.93734317       1.13744406      -1.13541231       2.24581948
H        5.33760473       7.61957075       2.98333243      -0.33454578      -0.38085747      -0.75073472
H        4.49597640       1.50393732       2.21157658       1.23263877      -1.26079585       0.83424212
H        1.75884400      10.97249979       7.43491291       0.33531293       2.11840221       2.95685968
H        0.45516756       7.82007951       9.56976060      -0.18688146      -1.07718941       0.09503905
H        4.54074759       6.91374703       1.68074212      -1.23974400      -0.77022591      -0.33510132
H        1.21411159       2.18103000       1.88379374       0.80006501      -0.19923050      -2.58940679
H        5.15327030      10.60245444       3.73933408      -1.50259731       0.35193618      -1.52345254
H        2.25489847       2.17300083       0.19534306      -1.08990466      -0.55666768       1.60203598
H        5.70966830      10.70657429       8.98291208       3.05668252       0.31923303       1.58518956
H        5.96283500       4.03215952       5.69763551      -0.19796192      -1.05915201      -1.30672641
H        2.84323454       7.55399260       5.01065844       1.54455243       0.00323979       1.49734858
H        0.57993993       1.88962352       0.38743408      -1.79916277       0.39888158      -1.13499747
H        3.87794065      10.37239619       9.37995158       2.12369335       0.46715389      -0.02666506
H        3.99112995       3.84089390       5.29612388       3.27340578       0.48684620      -0.18384920
H        1.25980347       8.29348351       5.04849372       0.08588546      -1.20703103       0.09946706
H        1.42157265       0.64287917       1.09106053       0.69690888       2.30022982      -0.93774933
H        4.37208152      11.79841320       8.42520028       1.73154052      -2.27513893       1.37766237
H        4.78310163       5.35261155       5.55935981       0.54688371      -1.15854597       0.37402671
H        1.66806725       6.52463902       4.47906794       0.10693006       2.33470512      -0.24742011
H        2.25953098       8.13403874       3.65786607      -1.20498054      -1.59860364       1.44162163
H        4.68665373       4.09953089       6.69059003       0.16247556       0.53438573      -0.04231921
H        4.67513438      10.20717251       7.89969251       0.20911217      -0.28275078      -0.19862706
H        1.86070095       1.55380077       5.74210944      -0.61525597       0.47257108       1.25265270
S        1.89524484       8.16958093       0.58768941      -0.59479809      -1.26048662      -3.49691262
S        4.01015018       4.37793116       9.25209993       1.69077507       0.29509871      -1.67239281
S        5.27637176       8.67992785       5.49906197       1.56132398      -2.91377155      -0.33054484
S        1.22966880       3.50556152       4.27292052      -0.33136017      -0.31236109       0.08685019
N        0.46942097       6.98439118       8.92655905      -3.41502776       2.73866818      -3.70780269
N        5.30359784       6.80513274       2.31580983       5.09729486      -0.07024104       2.34899219
N        4.70104033       1.41195982       3.26783870       1.61773292       0.93256853      -0.04069995
N        1.85877988      10.92816639       6.46746188       1.10011418      -4.43826438      -3.21505979
N        1.42997585       1.74441113       0.85315395       1.10440878      -1.51497211       3.01072415
N        4.77387934      10.72098247       8.77646070      -6.74722115       2.78215287      -2.30675636
N        4.95164720       4.31189875       5.69026286      -5.04005304       1.47158019       1.13766322
N        1.95540712       7.62535572       4.58207337      -0.17651503      -0.16656252      -3.33529050
O        3.32290512       7.57876476       0.40985373      -3.01430036       0.87735647       1.16124183
O        5.17839287       5.27489356       8.82912869      -0.71465033      -1.55596986       1.14236358
O        0.09282925       8.72963690       5.92958563      -1.20393182       0.19505793       1.60807930
O        2.56602448       2.76072126       4.27742796      -1.89310694       0.35341414      -0.09832407
O        1.72108217       9.16737344       1.62319746       0.75737750      -0.09833082       0.65667506
O        3.88854027       3.39218917       8.11943622      -0.42161114       0.18639262       0.59829453
O        4.75650683       7.25304430       5.50754923       0.40218763       2.12245608       0.64570283
O        1.58415214       4.94827303       4.38862509      -0.77924149      -1.02655087      -0.54389712
O        0.95648442      11.01484003       9.12407722       1.13169940      -0.53941801       1.75287348
O        4.67495376       1.25009245       0.60680867      -0.05507289       1.61388026      -1.29806894
O        5.37452860       9.05372138       4.08509349      -0.94787377       0.83956199      -0.51713994
O        0.43237929       3.05463539       5.46215837       1.55752407       0.20603168      -0.58364629
O        0.90400588       7.01486010       0.86800931       0.98381804       0.12931523       0.26741082
O        2.86785006       5.32816846       9.30990090      -0.41826216      -1.13834527       0.55058233
O        4.49627462       9.57941546       6.36125632      -0.38176391      -0.24469987      -0.97631641
O        0.31786044       3.15920601       3.06937472       2.35830920       0.64564928       1.36102863
60
Lattice="5.9105962 0.0 0.0 0.10173938 7.98188308 0.0 0.08356163 -0.57114046 10.91035924" Properties=species:S:1:pos:R:3:forces:R:3 energy=-358.71083981 stress="0.049117218094660645 -0.010210787242564662 -0.0058454685572203804 -0.010210787242564662 0.02025969511013851 -0.024993927666978978 -0.0058454685572203804 -0.024993927666978978 0.007395979810317802" free_energy=-358.71083981 pbc="T T T"
H        1.44781248       4.43457019       8.53757671       0.24697514      -1.83524033      -0.14986534
H        4.21070211       3.31826716       2.15437437      -0.06108027       0.05527098      -0.56546136
H        4.44457213       7.61087517       2.31554024      -0.48242363       0.33741774      -2.44941578
H        2.63222785       7.18741576       7.57571824      -1.36784764       0.79369639      -1.19273299
H        1.64921237       3.07733623       7.59637570      -1.14050893      -1.29931988      -3.57954643
H        3.83469753       5.07869385       2.02452681       2.26005012      -1.92847155       0.15158744
H        3.72308557       0.44299028       3.76516759       2.29920306       0.62856943      -1.54584430
H        0.88893941       6.91341959       7.16392932       0.62767635      -1.36855028      -0.92740921
H        0.67184924       3.03998853       9.14706113       1.18882674      -0.41031179      -1.87866915
H        5.52548240       4.26517425       1.96571997       0.96576406       0.37169374      -0.13027054
H        4.48101822       6.91200218       3.71979054       1.44739735       2.17870800      -0.62407975
H        1.28921746       7.37529228       8.53819871       0.39085941       1.78215179      -0.67377878
H        2.39527754       3.03436739       8.92832621      -1.25899507       0.97124821       0.42132332
H        4.57710345       4.20218337       3.41954683       0.80187931       0.40745990      -0.04983592
H        1.20732539       1.87638412       1.58028840       0.13895929       0.02834623       1.59997409
H        5.56987409       0.19306569       3.35814398      -0.93221025       0.14072684       0.28223046
H        2.28481260       0.97117258       0.62020330      -2.39214664       1.05719112       0.58237196
H        5.49036586       5.71597311      10.13042435      -1.60820050       1.03813383      -1.78343840
H        5.36944968       2.20240100       6.45167281      -1.65139178      -0.07872497       1.06097941
H        2.64272074       5.49951271       4.28166673      -2.18128507      -1.02735652      -0.82194481
H        0.54193301       1.58765430       0.10662705       1.51919952      -1.54846065       0.72811735
H        3.80928585       6.01605627      10.44122929       1.54847920      -0.72489276      -0.22153914
H        3.75354220       1.85810114       5.96988793       0.90437009      -0.17040884       1.00567922
H        1.38144573       5.66115312       5.21276115      -1.40410884      -0.16667333      -1.63670861
H        0.91082992       0.09666237       1.18662900       0.00763926       2.20118391       0.36838308
H        4.30195998       7.04909472       9.50912380       1.33844466       0.93014331      -0.94583333
H        4.00121230       3.19018859       6.78079951       0.43874341       0.25244378       0.82746218
H        1.20355054       4.40591892       4.00521677       0.63357991       0.46438727       0.17318685
H        1.24926198       6.08191766       3.36223821       0.06627308      -1.25042696       1.97428926
H        4.19880118       1.75328386       7.70100419      -0.18082886      -0.64914595       0.35256687
H        4.09086388       5.52235312       9.02768478      -1.00211190      -2.87724424      -3.44440269
H        1.29738853       0.40493244       7.00894319       0.74217527       0.79114842       0.99440736
S        1.60462387       5.71118312       0.77376639       1.41431654      -0.39459619       1.38196499
S        4.34893832       1.62060199      10.10038453       0.21654280      -1.89093463       2.66265514
S        4.60289686       5.72535665       6.31702796       2.37074447       1.74310704       0.95951670
S        1.58340346       1.70897333       4.71075577       2.66831083       3.16193120      -2.99692400
N        1.46356556       3.36749599       8.48772706       0.96844693       2.47885446       5.44896703
N        4.62172495       4.22946000       2.39507163      -4.11157749       0.81462269      -0.20782938
N        4.56746844      -0.06385299       3.21265565      -2.17184259      -2.90819763       4.54726135
N        1.61648691       7.53748647       7.55202640      -0.11879341      -1.66553379       1.91919784
N        1.22055279       1.11549508       0.93353703       1.05439334      -1.43025477      -2.96728346
N        4.56573930       6.06286853       9.63551791       0.06047597       1.70152120       6.44853203
N        4.34457553       2.21464459       6.81684024       0.85024252       0.42602096      -3.63757575
N        1.53156432       5.39764709       4.18402174       2.94005619       1.48217573       0.29136301
O        3.02828716       6.23098517       1.14616553      -1.31257009      -1.23956923      -0.11106285
O        5.76963008       1.33165848       9.78128544       1.08714579       0.99495148      -0.19118906
O        0.19427576       5.48472655       6.66702802      -2.70881465      -0.45331464       0.02102682
O        3.08958960       1.99705357       4.36232778      -1.79101569      -1.39866132       1.59118074
O        0.67296072       6.47056536       1.67533236       0.09142441      -0.36112224      -0.44514217
O        3.58846183       0.76395683       9.21843615      -1.59272685      -1.02156694      -1.43460141
O        3.62556631       4.89503789       7.06517005       0.61267057      -0.07748065      -0.28613229
O        0.91336567       2.65177208       3.72734912      -0.54561502      -1.22909698       1.92624826
O        1.46280198       5.50701193      10.29137561      -0.48255283       0.64330456      -0.71990885
O        4.05179733       1.69119121       0.59680560       0.00518485       1.12720207      -0.82706512
O        4.51896434       5.40188457       4.85299380      -0.85280627       0.86648875       0.51284062
O        1.34729309       2.00054089       6.14869628      -0.34335527       0.36675171      -0.35001920
O        1.45214168       4.25911251       0.96988806       0.11878628       1.20504606       0.22187339
O        3.99033435       3.00175292       9.85711265       0.17073155       0.95629313       0.11837424
O        4.34807680       7.16586707       6.71505532      -0.04971469      -1.79788453      -1.26034898
O        1.26089387       0.32592765       4.47805112      -0.45144407      -1.19475032      -0.51770195
60
Lattice="5.8143537 0.0 0.0 0.34694647 7.62595508 0.0 0.09299126 0.28801259 10.88812432" Properties=species:S:1:pos:R:3:forces:R:3 energy=-357.93511553 stress="-0.01497278549603462 -0.004564597420194736 0.006321251944709441 -0.004564597420194736 -0.011650775137811823 -0.012911706026312279 0.006321251944709441 -0.012911706026312279 -0.00830724826914164" free_energy=-357.93511553 pbc="T T T"
H        2.45262683       4.11285447       8.88935029       1.11259321       0.65656575      -0.26297053
H        4.25316140       4.35502806       3.09392389      -0.51686968       1.14999133       0.87919130
H        4.77088739       7.03367054       3.64170782       0.12498913      -1.85775801       0.59850058
H        1.33802518       7.07020296       7.26168143      -2.30784962      -3.77570330      -1.52281011
H        1.36887826       2.93356466       9.22564014      -1.05609422       2.92393559      -2.11500113
H        5.24567118       3.25332092       2.63032455       1.08276158      -0.22722339      -0.51063106
H        3.53323721       0.65532992       3.59119509      -4.53576700       1.47113365       0.46675734
H        1.43464649       0.91820707       6.57960414       0.03713622      -0.45114998       2.98530479
H        1.14216584       4.31216428       7.98420985      -1.97687768       0.85413361      -3.39467593
H        5.10639423       4.76397765       1.69784086       0.75773065       0.10547664       0.71600575
H        4.95738869       0.87727186       3.47930034       1.14521754       0.26489122       0.16487942
H        1.09981999       0.43356026       8.39298411      -1.42159224       1.95550970       1.40480978
H        1.16301307       4.50335494       9.63156716      -1.87497971       2.90044684       2.96352411
H        3.87778675       3.63238232       1.63317989       2.09408509       0.69559274       1.71219728
H        2.21636017       1.87748279       1.73496403       1.03007977       1.54161966       1.97610639
H        4.55201359       0.14178484       2.13854706      -1.46317149       0.16173583       0.36850250
H        1.93711921       0.38810661       1.20892488       0.42228160      -3.02961446       0.55078391
H        4.39328494       6.00756203       8.82947355       0.43171990      -1.71154044      -2.88502589
H        3.67299819       2.94139903       5.87507945      -0.18142434       1.27055800      -1.25049237
H        1.04450303       5.37518729       5.22132086       0.55027968       0.74455674      -0.35460024
H        2.17592513       1.54027209       0.21294798       1.85892612       0.65882087      -3.44458195
H        4.18782283       5.72896983      10.41352731       0.08279486       1.82369181      -1.70430211
H        5.41268749       2.56125064       6.24480150      -0.23595542       1.65036793      -0.38493321
H        1.97828460       6.59187827       4.43959273       1.29469319       0.25971615       0.41350303
H        0.77814714       1.59421575       0.98049421       0.07263372      -0.35241560       0.24799536
H        5.57963391       6.46573818      10.08063293      -0.61035837       0.61419688      -1.24199599